 Gaussian 09, Revision A.02,
 Gaussian 09:  EM64L-G09RevA.02 11-Jun-2009

 ----------------------------------------------------------------------
 #p wB97XD/GEN 6D Iop(6/7=3) Iop(9/40=14) scf(maxcyc=200,conver=7) nosy
 m Guess(Read,TCheck) GFInput Force
 ----------------------------------------------------------------------

 -------
 Comment
 -------
 Symbolic Z-matrix:
 Charge = -1 Multiplicity = 2

                          Input orientation:
 ---------------------------------------------------------------------
 Center     Atomic      Atomic             Coordinates (Angstroms)
 Number     Number       Type             X           Y           Z
 ---------------------------------------------------------------------
      1          6           0       -0.038123   -0.089716   -0.011232
      2          6           0        0.110405    0.226521    1.299589
      3          1           0        1.138708   -0.102726    1.872187
      4          1           0       -0.590971    0.930897    2.067473
 ---------------------------------------------------------------------

 SCF Done:  E(UwB97XD) =  -77.2480894962     A.U. after   15 cycles

 Alpha  occ. eigenvalues --  -10.09234 -10.06608  -0.59415  -0.36835  -0.26606
 Alpha  occ. eigenvalues --   -0.13138  -0.11390  -0.02142
 Alpha virt. eigenvalues --    0.06987   0.07212   0.08666   0.10368   0.10736
 Alpha virt. eigenvalues --    0.11080   0.12125   0.12724   0.12897   0.15853
 Alpha virt. eigenvalues --    0.17359   0.17871   0.19156   0.19763   0.19936

  Beta  occ. eigenvalues --  -10.09443 -10.05593  -0.57607  -0.34560  -0.24768
  Beta  occ. eigenvalues --   -0.10918  -0.10426
  Beta virt. eigenvalues --    0.07818   0.07955   0.09598   0.10956   0.11580
  Beta virt. eigenvalues --    0.12775   0.12825   0.14146   0.14330   0.16773
  Beta virt. eigenvalues --    0.18964   0.19306   0.20610   0.20885   0.21081

 Mulliken atomic charges:
              1
     1  C   -0.499225
     2  C   -0.076772
     3  H   -0.220777
     4  H   -0.203227
 Sum of Mulliken atomic charges =  -1.00000

 Dipole moment (field-independent basis, Debye):
    X=              0.1714    Y=              0.2405    Z=             -0.9336  Tot=              0.9792
 Quadrupole moment (field-independent basis, Debye-Ang):
   XX=            -19.1972   YY=            -19.6559   ZZ=            -23.2150
   XY=             -0.3343   XZ=             -0.3497   YZ=             -0.6884

 Normal termination of Gaussian 09 at Tue Jun 13 17:02:49 2023.
