 Gaussian 09, Revision A.02,
 Gaussian 09:  EM64L-G09RevA.02 11-Jun-2009

 ----------------------------------------------------------------------
 #p wB97XD/GEN 6D Iop(6/7=3) Iop(9/40=14) scf(maxcyc=200,conver=7) nosy
 m Guess(Read,TCheck) GFInput Force
 ----------------------------------------------------------------------

 -------
 Comment
 -------
 Symbolic Z-matrix:
 Charge = -1 Multiplicity = 2

                          Input orientation:
 ---------------------------------------------------------------------
 Center     Atomic      Atomic             Coordinates (Angstroms)
 Number     Number       Type             X           Y           Z
 ---------------------------------------------------------------------
      1          6           0       -0.037987   -0.088978   -0.007810
      2          6           0        0.111371    0.225487    1.295847
      3          1           0        1.126641   -0.098969    1.871546
      4          1           0       -0.592029    0.930670    2.071927
 ---------------------------------------------------------------------

 SCF Done:  E(UwB97XD) =  -77.2485983016     A.U. after   15 cycles

 Alpha  occ. eigenvalues --  -10.09096 -10.06472  -0.59598  -0.36905  -0.26617
 Alpha  occ. eigenvalues --   -0.13115  -0.11492  -0.02093
 Alpha virt. eigenvalues --    0.06984   0.07209   0.08666   0.10360   0.10733
 Alpha virt. eigenvalues --    0.11080   0.12128   0.12724   0.12888   0.15857
 Alpha virt. eigenvalues --    0.17364   0.17872   0.19153   0.19746   0.19922

  Beta  occ. eigenvalues --  -10.09304 -10.05464  -0.57781  -0.34644  -0.24751
  Beta  occ. eigenvalues --   -0.10998  -0.10416
  Beta virt. eigenvalues --    0.07830   0.07981   0.09606   0.10975   0.11596
  Beta virt. eigenvalues --    0.12803   0.12827   0.14134   0.14393   0.16777
  Beta virt. eigenvalues --    0.19012   0.19360   0.20636   0.20961   0.21082

 Mulliken atomic charges:
              1
     1  C   -0.500797
     2  C   -0.069190
     3  H   -0.253457
     4  H   -0.176556
 Sum of Mulliken atomic charges =  -1.00000

 Dipole moment (field-independent basis, Debye):
    X=              0.2140    Y=              0.2103    Z=             -0.9345  Tot=              0.9815
 Quadrupole moment (field-independent basis, Debye-Ang):
   XX=            -19.1597   YY=            -19.6707   ZZ=            -23.2199
   XY=             -0.2900   XZ=             -0.2140   YZ=             -0.7902

 Normal termination of Gaussian 09 at Tue Jun 13 17:05:25 2023.
