 Gaussian 09, Revision A.02,
 Gaussian 09:  EM64L-G09RevA.02 11-Jun-2009

 ----------------------------------------------------------------------
 #p wB97XD/GEN 6D Iop(6/7=3) Iop(9/40=14) scf(maxcyc=200,conver=7) nosy
 m Guess(Read,TCheck) GFInput
 ----------------------------------------------------------------------

 -------
 Comment
 -------
 Symbolic Z-matrix:
 Charge =  0 Multiplicity = 1

                          Input orientation:
 ---------------------------------------------------------------------
 Center     Atomic      Atomic             Coordinates (Angstroms)
 Number     Number       Type             X           Y           Z
 ---------------------------------------------------------------------
      1          6           0       -0.038123   -0.089716   -0.011232
      2          6           0        0.110405    0.226521    1.299589
      3          1           0        1.138708   -0.102726    1.872187
      4          1           0       -0.590971    0.930897    2.067473
 ---------------------------------------------------------------------

 SCF Done:  E(RwB97XD) =  -77.2152752880     A.U. after    9 cycles

 Alpha  occ. eigenvalues --  -10.38685 -10.34763  -0.86498  -0.62112  -0.51172
 Alpha  occ. eigenvalues --   -0.39476  -0.37619
 Alpha virt. eigenvalues --   -0.04449   0.00785   0.01270   0.01977   0.02507
 Alpha virt. eigenvalues --    0.03402   0.03602   0.03720   0.03813   0.04237
 Alpha virt. eigenvalues --    0.05587   0.06225   0.07231   0.07623   0.08837

 Mulliken atomic charges:
              1
     1  C    0.294410
     2  C   -0.295209
     3  H   -0.003786
     4  H    0.004584
 Sum of Mulliken atomic charges =  -0.00000

 Dipole moment (field-independent basis, Debye):
    X=              0.3428    Y=              0.7180    Z=              2.4852  Tot=              2.6095
 Quadrupole moment (field-independent basis, Debye-Ang):
   XX=            -11.7080   YY=            -13.7071   ZZ=             -9.8626
   XY=             -1.6234   XZ=              0.6568   YZ=              1.2373

 Normal termination of Gaussian 09 at Tue Jun 13 17:02:58 2023.
