 Gaussian 09, Revision A.02,
 Gaussian 09:  EM64L-G09RevA.02 11-Jun-2009

 ----------------------------------------------------------------------
 #p wB97XD/GEN 6D Iop(6/7=3) Iop(9/40=14) scf(maxcyc=200,conver=7) nosy
 m Guess(Read,TCheck) GFInput
 ----------------------------------------------------------------------

 -------
 Comment
 -------
 Symbolic Z-matrix:
 Charge =  0 Multiplicity = 1

                          Input orientation:
 ---------------------------------------------------------------------
 Center     Atomic      Atomic             Coordinates (Angstroms)
 Number     Number       Type             X           Y           Z
 ---------------------------------------------------------------------
      1          6           0       -0.037987   -0.088978   -0.007810
      2          6           0        0.111371    0.225487    1.295847
      3          1           0        1.126641   -0.098969    1.871546
      4          1           0       -0.592029    0.930670    2.071927
 ---------------------------------------------------------------------

 SCF Done:  E(RwB97XD) =  -77.2161366842     A.U. after    9 cycles

 Alpha  occ. eigenvalues --  -10.38522 -10.34625  -0.86697  -0.62209  -0.51201
 Alpha  occ. eigenvalues --   -0.39436  -0.37730
 Alpha virt. eigenvalues --   -0.04434   0.00782   0.01270   0.01979   0.02504
 Alpha virt. eigenvalues --    0.03400   0.03604   0.03723   0.03825   0.04237
 Alpha virt. eigenvalues --    0.05710   0.06232   0.07242   0.07625   0.08841

 Mulliken atomic charges:
              1
     1  C    0.300841
     2  C   -0.301809
     3  H   -0.031952
     4  H    0.032919
 Sum of Mulliken atomic charges =  -0.00000

 Dipole moment (field-independent basis, Debye):
    X=              0.3430    Y=              0.7219    Z=              2.5155  Tot=              2.6394
 Quadrupole moment (field-independent basis, Debye-Ang):
   XX=            -11.7155   YY=            -13.6831   ZZ=             -9.7817
   XY=             -1.6096   XZ=              0.6427   YZ=              1.2473

 Normal termination of Gaussian 09 at Tue Jun 13 17:05:34 2023.
