 Gaussian 09, Revision A.02,

 ----------------------------------------------------------------------
 #p wB97XD/GEN 6D Iop(6/7=3) Iop(9/40=14) scf(maxcyc=200,conver=8) nosy
 m Guess(Read,TCheck) GFInput Force
 ----------------------------------------------------------------------

 -------
 Comment
 -------
 Symbolic Z-matrix:
 Charge = -1 Multiplicity = 2

 SCF Done:  E(UwB97XD) =  -323.527180671     A.U. after   16 cycles
 Normal termination of Gaussian 09 at Fri Nov  4 21:02:28 2022.
 Gaussian 09:  EM64L-G09RevA.02 11-Jun-2009

 ----------------------------------------------------------------------
 #p TD(full,nstates=1) wB97XD/GEN 6D Iop(6/7=3) Iop(9/40=14) scf(maxcyc
 =200,conver=8) nosym Guess(Read) Geom=AllCheck
 ----------------------------------------------------------------------

 -------
 No Z-matrix found on checkpoint file.
 Cartesian coordinates read from the checkpoint file:
 an.chk
 Charge = -1 Multiplicity = 2

                          Input orientation:
 ---------------------------------------------------------------------
 Center     Atomic      Atomic             Coordinates (Angstroms)
 Number     Number       Type             X           Y           Z
 ---------------------------------------------------------------------
      1          6           0       -5.051226    0.470784    0.809591
      2          6           0       -3.760154    1.211317    0.889299
      3          7           0       -5.128800   -0.717089    1.739894
      4          1           0       -6.046911    1.014469    1.117772
      5          1           0       -5.120514   -0.017836   -0.253650
      6          8           0       -6.307385   -1.120645    2.004308
      7          8           0       -4.063791   -1.578583    1.904516
      8          6           0       -3.266390    1.603928    2.435240
      9          1           0       -2.990650    0.589255    0.308686
     10          1           0       -3.810403    2.092605    0.194831
     11          1           0       -3.143649    0.694804    3.039587
     12          1           0       -2.548135    2.368979    2.396744
     13          1           0       -4.123568    2.044252    2.729828
 ---------------------------------------------------------------------

 SCF Done:  E(UwB97XD) =  -323.527180671     A.U. after    1 cycles

 Excitation energies and oscillator strengths:

 Excited state symmetry could not be determined.
 Excited State   1:  2.016-?Sym    0.8878917464 eV 1396.39 nm  f=0.0095337993  <S**2>=0.767
        1A ->   26A    -.84114363347270E-06
        1A ->   27A    0.37199426646967E-05
        1A ->   28A    -.38919480987231E-06
        1A ->   29A    -.84281842616090E-06
        1A ->   30A    0.46915915779066E-06
        1A ->   31A    -.15581052140607E-05
        1A ->   32A    -.38429040429343E-05
        1A ->   33A    -.11336849319254E-05
        1A ->   34A    -.14908472245435E-05
        1A ->   35A    -.76785809461922E-07
        1A ->   36A    0.42050260257032E-06
        1A ->   37A    0.11674084078557E-05
        1A ->   38A    0.85065931716313E-07
        1A ->   39A    -.93699276816370E-07
        1A ->   40A    -.89297743363964E-06
        1A ->   41A    -.24365390098556E-06
        1A ->   42A    0.11676226183130E-05
        1A ->   43A    -.77876558436118E-06
        1A ->   44A    0.64545917762420E-06
        1A ->   45A    -.85224339199072E-06
        1A ->   46A    0.39316446763503E-06
        1A ->   47A    0.17139231675780E-05
        1A ->   48A    0.10028905028190E-05
        1A ->   49A    -.57963201475736E-06
        1A ->   50A    -.21741744463451E-06
        1A ->   51A    0.10531286960189E-05
        1A ->   52A    -.29468350018061E-06
        1A ->   53A    -.76283354807874E-06
        1A ->   54A    -.39190187005939E-06
        1A ->   55A    -.19957890515061E-06
        1A ->   56A    -.10923417661159E-05
        1A ->   57A    0.61319445415447E-06
        1A ->   58A    0.78508069712877E-06
        1A ->   59A    -.43791099479616E-06
        1A ->   60A    0.49831070115492E-06
        1A ->   61A    -.48533606014628E-06
        1A ->   62A    0.36329850943739E-06
        1A ->   63A    0.29851696716504E-06
        1A ->   64A    0.57964530942171E-06
        1A ->   65A    0.55381467352731E-06
        1A ->   66A    0.15126023834512E-05
        1A ->   67A    -.12628449788162E-05
        1A ->   68A    -.20796591746891E-05
        1A ->   69A    0.23441054029370E-05
        1A ->   70A    0.84185476204817E-07
        1A ->   71A    -.12538657726341E-06
        1A ->   72A    -.24637328300823E-06
        1A ->   73A    0.40640368887066E-06
        1A ->   74A    -.15126112807166E-06
        1A ->   75A    -.66439952814904E-06
        1A ->   76A    0.27086276988052E-06
        1A ->   77A    -.45204235779132E-07
        1A ->   78A    0.16574409245530E-06
        1A ->   79A    0.88411963953850E-07
        1A ->   80A    -.19856114108833E-06
        1A ->   81A    0.30971759856541E-06
        1A ->   82A    -.14934825066230E-07
        1A ->   83A    -.11978358287707E-06
        1A ->   84A    0.69792032742461E-06
        1A ->   85A    0.16499210712172E-06
        1A ->   86A    -.27655274732999E-06
        1A ->   87A    -.73937204892532E-07
        1A ->   88A    -.43891343811882E-06
        1A ->   89A    0.34372975001804E-05
        1A ->   90A    0.53232762736459E-06
        1A ->   91A    -.18750818622453E-05
        1A ->   92A    0.13078339483710E-05
        1A ->   93A    -.20584981443452E-05
        1A ->   94A    0.25030327215439E-05
        1A ->   95A    -.15053651393189E-05
        1A ->   96A    -.18392557103930E-05
        1A ->   97A    -.32255771368625E-06
        1A ->   98A    0.18727773725267E-05
        1A ->   99A    -.74168566524322E-06
        1A ->  100A    0.11459872117204E-05
        1A ->  101A    -.50495388050279E-06
        1A ->  102A    0.93756704068516E-06
        1A ->  103A    -.11308722718416E-05
        1A ->  104A    0.74792485360402E-06
        1A ->  105A    0.80128210390261E-06
        1A ->  106A    -.42139535646472E-05
        1A ->  107A    0.92738458500646E-06
        1A ->  108A    0.25995329300321E-06
        1A ->  109A    -.18630621009320E-05
        1A ->  110A    0.10902100311281E-06
        1A ->  111A    -.15370240980584E-05
        1A ->  112A    -.26953119406956E-06
        1A ->  113A    -.37588545304716E-06
        1A ->  114A    0.17027862728675E-05
        1A ->  115A    -.42435059067262E-06
        1A ->  116A    0.16138668403588E-05
        1A ->  117A    0.12563223020957E-05
        1A ->  118A    -.18491453114580E-05
        1A ->  119A    0.11257156206829E-05
        1A ->  120A    -.41652847977563E-06
        1A ->  121A    0.11634575030092E-06
        1A ->  122A    0.13340257776389E-06
        1A ->  123A    0.37727932714368E-06
        1A ->  124A    0.14626874046359E-05
        1A ->  125A    0.43292740832430E-06
        1A ->  126A    -.31752660369807E-06
        1A ->  127A    -.18486134165506E-06
        1A ->  128A    0.32641962905825E-06
        1A ->  129A    0.12059217271954E-05
        1A ->  130A    -.15775837444745E-06
        1A ->  131A    -.65907567150516E-06
        1A ->  132A    0.23253699513117E-06
        1A ->  133A    0.77581127967648E-06
        1A ->  134A    0.24938731304954E-06
        1A ->  135A    -.20235422551274E-06
        1A ->  136A    -.55223081371731E-06
        1A ->  137A    -.82028125750846E-06
        1A ->  138A    -.16134240265784E-05
        1A ->  139A    0.64985930481470E-06
        1A ->  140A    -.65303276024993E-06
        1A ->  141A    0.17382699326482E-05
        1A ->  142A    0.51357711872906E-06
        1A ->  143A    -.29773335603165E-05
        1A ->  144A    0.21604786787210E-05
        1A ->  145A    0.12937680210352E-05
        1A ->  146A    0.16292988436171E-06
        1A ->  147A    -.10527718009378E-06
        1A ->  148A    0.40791380914898E-07
        1A ->  149A    0.63070407130791E-08
        1A ->  150A    0.34490553763899E-06
        1A ->  151A    -.11655455068162E-06
        1A ->  152A    -.21912324390830E-07
        1A ->  153A    -.47343732344037E-05
        1A ->  154A    -.28676647766771E-05
        1A ->  155A    -.19977660606749E-06
        1A ->  156A    0.57190839483518E-05
        1A ->  157A    -.10664319642660E-05
        2A ->   26A    -.44620024731485E-06
        2A ->   27A    0.32803705502408E-05
        2A ->   28A    0.25066246819679E-06
        2A ->   29A    -.82770727650691E-06
        2A ->   30A    0.30443291585114E-06
        2A ->   31A    -.26041915595207E-05
        2A ->   32A    -.24073241959515E-05
        2A ->   33A    -.11365359553438E-05
        2A ->   34A    -.51957298039819E-06
        2A ->   35A    -.79467423587669E-06
        2A ->   36A    0.85776864808079E-07
        2A ->   37A    -.41403964582873E-06
        2A ->   38A    0.49241057526625E-07
        2A ->   39A    0.30393850722179E-06
        2A ->   40A    -.43470943944164E-06
        2A ->   41A    -.16932736841318E-06
        2A ->   42A    0.90372972272421E-07
        2A ->   43A    -.31769028981037E-06
        2A ->   44A    0.78137990520842E-06
        2A ->   45A    0.50131139229981E-06
        2A ->   46A    0.13382202159116E-05
        2A ->   47A    -.84995526650954E-06
        2A ->   48A    -.29825331026884E-06
        2A ->   49A    0.71254134411016E-06
        2A ->   50A    -.21719881972627E-05
        2A ->   51A    -.17219739286215E-06
        2A ->   52A    -.13514493979402E-05
        2A ->   53A    -.39912003074630E-06
        2A ->   54A    -.10959491458479E-06
        2A ->   55A    -.55064258515527E-06
        2A ->   56A    -.31715870402432E-06
        2A ->   57A    -.98353613409332E-07
        2A ->   58A    -.32030488700722E-06
        2A ->   59A    0.87601631665338E-06
        2A ->   60A    0.34130109020226E-07
        2A ->   61A    0.68545646810651E-06
        2A ->   62A    -.11733614843370E-06
        2A ->   63A    -.49763623178205E-06
        2A ->   64A    -.54056390605307E-06
        2A ->   65A    -.63279301784282E-07
        2A ->   66A    -.63849566920982E-06
        2A ->   67A    0.15101732053156E-05
        2A ->   68A    -.18971603461935E-05
        2A ->   69A    -.16369896328956E-05
        2A ->   70A    0.11611541042198E-06
        2A ->   71A    0.58514448701878E-06
        2A ->   72A    0.63012170128864E-06
        2A ->   73A    -.64773599562360E-06
        2A ->   74A    0.68082746777301E-07
        2A ->   75A    0.24379353807672E-06
        2A ->   76A    -.82109422984774E-08
        2A ->   77A    -.17340925559990E-06
        2A ->   78A    0.26751322413548E-07
        2A ->   79A    -.14319074797730E-06
        2A ->   80A    0.37663917722753E-06
        2A ->   81A    0.50306278324513E-06
        2A ->   82A    -.31394619689239E-07
        2A ->   83A    0.76734406162049E-07
        2A ->   84A    0.45554227108671E-06
        2A ->   85A    0.36226848150246E-06
        2A ->   86A    -.87381654414533E-06
        2A ->   87A    0.17584180001662E-06
        2A ->   88A    -.15141921494218E-06
        2A ->   89A    0.17171080463133E-05
        2A ->   90A    0.20701579246240E-05
        2A ->   91A    -.15641224878293E-05
        2A ->   92A    0.43911005591878E-06
        2A ->   93A    -.10249083578962E-05
        2A ->   94A    -.13285350439652E-05
        2A ->   95A    -.30959076491901E-06
        2A ->   96A    0.35534728259354E-05
        2A ->   97A    0.17241836590562E-05
        2A ->   98A    -.12223464065349E-05
        2A ->   99A    0.62213920972859E-06
        2A ->  100A    0.38119422799527E-06
        2A ->  101A    0.12991561350510E-05
        2A ->  102A    -.51690737994195E-06
        2A ->  103A    -.18090382777262E-05
        2A ->  104A    -.71317893206711E-06
        2A ->  105A    0.18871740617295E-05
        2A ->  106A    -.59658199834712E-06
        2A ->  107A    0.14019423217299E-06
        2A ->  108A    -.27395762855960E-05
        2A ->  109A    0.22181787664216E-05
        2A ->  110A    -.59281077359763E-06
        2A ->  111A    -.11120927136843E-06
        2A ->  112A    -.27307930371545E-06
        2A ->  113A    -.11519665032823E-05
        2A ->  114A    0.38890283502915E-06
        2A ->  115A    -.36219690201552E-05
        2A ->  116A    -.25308306128336E-06
        2A ->  117A    0.68373108874108E-06
        2A ->  118A    0.57168394583124E-06
        2A ->  119A    0.12714594118716E-06
        2A ->  120A    0.10522894940299E-05
        2A ->  121A    0.23060973442983E-06
        2A ->  122A    0.50914872142334E-06
        2A ->  123A    0.48314596869354E-06
        2A ->  124A    -.18902967008490E-06
        2A ->  125A    0.85841242285464E-07
        2A ->  126A    0.65459081916778E-06
        2A ->  127A    -.72733507541780E-06
        2A ->  128A    -.31528263334538E-06
        2A ->  129A    -.69759395948783E-06
        2A ->  130A    -.84338575741402E-06
        2A ->  131A    0.12953022799477E-05
        2A ->  132A    0.12689350516702E-05
        2A ->  133A    -.20876067432793E-06
        2A ->  134A    -.31690203935444E-06
        2A ->  135A    0.33319877740717E-06
        2A ->  136A    -.16414541553697E-06
        2A ->  137A    0.75132102355079E-06
        2A ->  138A    0.21864578810850E-05
        2A ->  139A    -.12670252393359E-05
        2A ->  140A    0.79227399862889E-06
        2A ->  141A    0.15467364664869E-05
        2A ->  142A    0.55543600669130E-06
        2A ->  143A    -.15526634460611E-05
        2A ->  144A    -.25178345746720E-05
        2A ->  145A    0.37718125523814E-07
        2A ->  146A    0.90777162419800E-07
        2A ->  147A    0.71585482964472E-08
        2A ->  148A    0.39278732562083E-06
        2A ->  149A    -.42848237389894E-06
        2A ->  150A    -.65196526355627E-06
        2A ->  151A    0.21744415966286E-06
        2A ->  152A    0.62164708791852E-07
        2A ->  153A    -.45653712650861E-05
        2A ->  154A    -.36629575496263E-05
        2A ->  155A    -.13913610325156E-05
        2A ->  156A    -.45220344874597E-05
        2A ->  157A    0.46851281824927E-06
        3A ->   26A    0.15992466809953E-05
        3A ->   27A    -.74950543718466E-05
        3A ->   28A    0.31802891839365E-06
        3A ->   29A    0.18328126301699E-05
        3A ->   30A    -.18350997150129E-05
        3A ->   31A    0.47210364503953E-05
        3A ->   32A    0.78780166100595E-05
        3A ->   33A    0.26137644780335E-05
        3A ->   34A    0.76195161982914E-06
        3A ->   35A    0.34760523375086E-05
        3A ->   36A    -.11677993335239E-05
        3A ->   37A    -.31428138167163E-05
        3A ->   38A    0.77808033365029E-06
        3A ->   39A    -.41546074996210E-05
        3A ->   40A    -.15066584153678E-05
        3A ->   41A    -.86432003875423E-07
        3A ->   42A    -.15588003340030E-05
        3A ->   43A    -.25994590229828E-05
        3A ->   44A    -.17101711206615E-05
        3A ->   45A    -.23166438061468E-05
        3A ->   46A    -.13533299557098E-04
        3A ->   47A    -.55176475576469E-05
        3A ->   48A    0.44113561275390E-05
        3A ->   49A    0.12198509409070E-04
        3A ->   50A    0.67135929163956E-05
        3A ->   51A    0.93500642342661E-06
        3A ->   52A    0.14221645933692E-04
        3A ->   53A    -.11518665552953E-06
        3A ->   54A    0.54534351575197E-05
        3A ->   55A    -.10229456723618E-06
        3A ->   56A    -.59561142099978E-05
        3A ->   57A    0.30567838318259E-05
        3A ->   58A    0.36773809450233E-05
        3A ->   59A    0.14273445492978E-05
        3A ->   60A    -.59467379132185E-05
        3A ->   61A    -.21787100594995E-05
        3A ->   62A    0.11540785088366E-05
        3A ->   63A    -.18220526183829E-05
        3A ->   64A    -.61197147903763E-05
        3A ->   65A    0.54031024989726E-05
        3A ->   66A    -.34040744708904E-05
        3A ->   67A    0.76752495890118E-05
        3A ->   68A    -.14483708619900E-05
        3A ->   69A    0.12935510989915E-05
        3A ->   70A    0.12734475642063E-05
        3A ->   71A    -.54901124202696E-05
        3A ->   72A    -.87015503730856E-06
        3A ->   73A    0.20143762383933E-05
        3A ->   74A    -.11152233782676E-05
        3A ->   75A    0.37970129897418E-05
        3A ->   76A    -.46718924218817E-05
        3A ->   77A    -.15059321264281E-05
        3A ->   78A    0.61069617020418E-06
        3A ->   79A    0.35805166441432E-05
        3A ->   80A    -.17745125349294E-05
        3A ->   81A    0.18452958890281E-05
        3A ->   82A    -.55619187463222E-05
        3A ->   83A    0.29646188976207E-05
        3A ->   84A    0.56137849763969E-05
        3A ->   85A    -.67371723415803E-06
        3A ->   86A    -.17012772981519E-06
        3A ->   87A    -.63117254046431E-06
        3A ->   88A    -.19216052959767E-05
        3A ->   89A    0.19364135797569E-05
        3A ->   90A    0.79818231412485E-06
        3A ->   91A    0.55089867832655E-06
        3A ->   92A    0.90996802399810E-06
        3A ->   93A    0.14318567045061E-05
        3A ->   94A    -.42345244362638E-05
        3A ->   95A    -.99271191403164E-06
        3A ->   96A    0.78051930991352E-06
        3A ->   97A    0.17953784028078E-06
        3A ->   98A    0.65882387391687E-05
        3A ->   99A    -.19673118716380E-05
        3A ->  100A    0.21030375268862E-05
        3A ->  101A    0.25402032612303E-05
        3A ->  102A    -.11017802183005E-05
        3A ->  103A    -.81640739504902E-05
        3A ->  104A    -.14800841525665E-05
        3A ->  105A    0.17472290197243E-05
        3A ->  106A    -.50529339682878E-05
        3A ->  107A    -.36563454398569E-06
        3A ->  108A    0.69536104324682E-05
        3A ->  109A    0.35614957182247E-05
        3A ->  110A    0.13957830380481E-05
        3A ->  111A    0.27146995344250E-06
        3A ->  112A    -.46251728449390E-05
        3A ->  113A    -.58563311542342E-05
        3A ->  114A    0.36085948626566E-05
        3A ->  115A    -.28371259554363E-06
        3A ->  116A    -.36794495277463E-05
        3A ->  117A    -.98690828530279E-06
        3A ->  118A    0.20804167550486E-05
        3A ->  119A    -.93803853771743E-05
        3A ->  120A    0.52954775290464E-05
        3A ->  121A    -.52107378871913E-05
        3A ->  122A    0.50318913421659E-05
        3A ->  123A    0.26003062595500E-05
        3A ->  124A    -.54521765725558E-05
        3A ->  125A    0.21351817387264E-05
        3A ->  126A    -.64218268527812E-05
        3A ->  127A    -.35012591955448E-05
        3A ->  128A    0.64132025029448E-05
        3A ->  129A    0.31167596738105E-05
        3A ->  130A    -.18342500718175E-05
        3A ->  131A    0.30414872058694E-05
        3A ->  132A    -.39604748884267E-05
        3A ->  133A    0.32446150915159E-05
        3A ->  134A    -.17855189278964E-05
        3A ->  135A    0.24283808211684E-05
        3A ->  136A    0.41599775370967E-06
        3A ->  137A    0.16106197404897E-05
        3A ->  138A    -.15570273341284E-06
        3A ->  139A    -.12129977012609E-05
        3A ->  140A    0.24132744447298E-07
        3A ->  141A    -.19357086441005E-07
        3A ->  142A    0.15131094363240E-05
        3A ->  143A    -.56252508182831E-06
        3A ->  144A    -.97875898548638E-06
        3A ->  145A    0.69941693844045E-06
        3A ->  146A    -.83852967747598E-06
        3A ->  147A    -.46373190006933E-06
        3A ->  148A    0.17671235862983E-06
        3A ->  149A    0.45499255575365E-06
        3A ->  150A    0.86542818696738E-07
        3A ->  151A    -.10664148802209E-05
        3A ->  152A    -.24238114978536E-04
        3A ->  153A    0.38450046096122E-05
        3A ->  154A    -.36968165776048E-05
        3A ->  155A    -.29518521107898E-05
        3A ->  156A    0.19154568314832E-05
        3A ->  157A    0.33542980461989E-05
        4A ->   26A    -.28076294048943E-05
        4A ->   27A    0.18565576444621E-06
        4A ->   28A    0.20951743948625E-06
        4A ->   29A    0.14854689948115E-06
        4A ->   30A    0.38564770680648E-05
        4A ->   31A    -.11833856535395E-05
        4A ->   32A    -.98934379871676E-06
        4A ->   33A    0.20732721577073E-05
        4A ->   34A    0.76114634457729E-06
        4A ->   35A    -.13659622692929E-06
        4A ->   36A    -.13387534312762E-05
        4A ->   37A    0.17054821579440E-05
        4A ->   38A    0.17630625745463E-05
        4A ->   39A    0.43738716757444E-06
        4A ->   40A    -.20082892548618E-05
        4A ->   41A    -.41516649229426E-05
        4A ->   42A    0.23823370562208E-05
        4A ->   43A    -.81754385166509E-06
        4A ->   44A    -.26153483963288E-06
        4A ->   45A    0.63010642099759E-06
        4A ->   46A    -.97654734533671E-05
        4A ->   47A    -.37008480967354E-05
        4A ->   48A    0.25022148506025E-05
        4A ->   49A    0.56801869291161E-05
        4A ->   50A    0.26793541138059E-05
        4A ->   51A    0.29233935386858E-05
        4A ->   52A    0.50518114185720E-05
        4A ->   53A    -.53191100282951E-05
        4A ->   54A    0.19413097892384E-05
        4A ->   55A    -.12160278786175E-05
        4A ->   56A    -.65585030505497E-05
        4A ->   57A    -.45098941793999E-06
        4A ->   58A    0.25640748895241E-05
        4A ->   59A    0.91943558274216E-06
        4A ->   60A    -.31775391415500E-05
        4A ->   61A    -.26645881193263E-05
        4A ->   62A    0.28264951402678E-05
        4A ->   63A    0.10455306198895E-05
        4A ->   64A    -.26599016614687E-05
        4A ->   65A    -.67165865992566E-05
        4A ->   66A    -.23332612280255E-05
        4A ->   67A    0.10252042175064E-05
        4A ->   68A    0.13994432526437E-05
        4A ->   69A    -.23734288005860E-05
        4A ->   70A    -.62536456790161E-06
        4A ->   71A    -.14546997132952E-04
        4A ->   72A    -.35727247730502E-05
        4A ->   73A    0.99799940605508E-05
        4A ->   74A    0.14332789714118E-05
        4A ->   75A    0.96473582611076E-05
        4A ->   76A    -.11772690393529E-04
        4A ->   77A    -.35071562200842E-05
        4A ->   78A    0.20851939276877E-05
        4A ->   79A    -.97596732302947E-06
        4A ->   80A    -.21738371547266E-05
        4A ->   81A    -.29015417887021E-05
        4A ->   82A    0.42144579284109E-06
        4A ->   83A    -.13454408808549E-05
        4A ->   84A    -.24642073432230E-05
        4A ->   85A    0.39271244824383E-05
        4A ->   86A    -.47845842321402E-06
        4A ->   87A    0.40528409278709E-06
        4A ->   88A    0.96677576652850E-06
        4A ->   89A    0.72110841989461E-06
        4A ->   90A    0.10157775749908E-05
        4A ->   91A    -.99673309665287E-06
        4A ->   92A    -.74226186031671E-06
        4A ->   93A    -.13735542038686E-05
        4A ->   94A    0.13472662719620E-06
        4A ->   95A    0.12219811648380E-05
        4A ->   96A    -.34150974021923E-06
        4A ->   97A    0.20394146608023E-06
        4A ->   98A    -.30447171926084E-05
        4A ->   99A    -.19802273728153E-05
        4A ->  100A    -.32782592805592E-07
        4A ->  101A    -.20875211840552E-05
        4A ->  102A    -.79088808901383E-06
        4A ->  103A    0.26634499245686E-05
        4A ->  104A    -.25128101569951E-05
        4A ->  105A    0.12886630863622E-05
        4A ->  106A    0.27791939750403E-05
        4A ->  107A    0.25265925399716E-05
        4A ->  108A    -.61324511047828E-05
        4A ->  109A    -.28649636096567E-05
        4A ->  110A    0.54373590979920E-06
        4A ->  111A    -.15887893187332E-05
        4A ->  112A    0.43876136266254E-06
        4A ->  113A    0.18242032100191E-05
        4A ->  114A    0.58625746874489E-07
        4A ->  115A    -.15003659345763E-05
        4A ->  116A    0.33818912682463E-05
        4A ->  117A    0.17295154378351E-05
        4A ->  118A    0.74795655090904E-06
        4A ->  119A    0.13096365400285E-05
        4A ->  120A    0.10509152281171E-05
        4A ->  121A    -.65154608287598E-07
        4A ->  122A    0.25319683497517E-05
        4A ->  123A    0.37834105192697E-06
        4A ->  124A    0.26904948740617E-05
        4A ->  125A    0.96130788059449E-06
        4A ->  126A    0.79231863523995E-06
        4A ->  127A    0.12739567632688E-05
        4A ->  128A    -.14611761804964E-05
        4A ->  129A    0.14093400689479E-05
        4A ->  130A    0.20410421580328E-05
        4A ->  131A    -.72060890339713E-06
        4A ->  132A    0.12974714994347E-05
        4A ->  133A    -.15242149752994E-05
        4A ->  134A    0.12668953211118E-05
        4A ->  135A    -.21315211187869E-05
        4A ->  136A    -.13305128639066E-05
        4A ->  137A    -.15165157730732E-05
        4A ->  138A    0.32626009901279E-06
        4A ->  139A    0.13818981867754E-05
        4A ->  140A    -.52070441370422E-06
        4A ->  141A    0.15096494468425E-05
        4A ->  142A    0.16398795732819E-06
        4A ->  143A    0.65762636062313E-06
        4A ->  144A    -.19588092182647E-05
        4A ->  145A    0.57966293119966E-05
        4A ->  146A    0.30258000158445E-06
        4A ->  147A    -.86940515768319E-06
        4A ->  148A    0.40353114183244E-06
        4A ->  149A    0.11341627517931E-05
        4A ->  150A    0.67460319102254E-06
        4A ->  151A    0.10525431111320E-06
        4A ->  152A    0.10362949727213E-05
        4A ->  153A    0.23533916381073E-06
        4A ->  154A    0.60155917017488E-06
        4A ->  155A    0.84201268034585E-06
        4A ->  156A    -.18256759407393E-06
        4A ->  157A    -.52394280534647E-06
        5A ->   26A    -.32257321523702E-06
        5A ->   27A    -.37583694959802E-06
        5A ->   28A    0.61694396435495E-06
        5A ->   29A    0.68806940424767E-07
        5A ->   30A    0.82756333649391E-06
        5A ->   31A    -.90028537039850E-06
        5A ->   32A    0.66291550368219E-06
        5A ->   33A    0.18658606876513E-06
        5A ->   34A    0.92497174647653E-06
        5A ->   35A    0.15906963713160E-05
        5A ->   36A    -.35455528257440E-06
        5A ->   37A    0.96408669950218E-06
        5A ->   38A    0.95155381373282E-06
        5A ->   39A    -.21889928188378E-06
        5A ->   40A    -.22336006405761E-07
        5A ->   41A    -.72381484005541E-06
        5A ->   42A    0.33323344006997E-06
        5A ->   43A    -.46998662031445E-06
        5A ->   44A    0.17676564547236E-05
        5A ->   45A    -.37009286005862E-06
        5A ->   46A    -.96485656468867E-06
        5A ->   47A    0.51529978830926E-06
        5A ->   48A    0.12274755476385E-05
        5A ->   49A    0.14538604169326E-05
        5A ->   50A    -.88987521004304E-06
        5A ->   51A    -.23338556597568E-06
        5A ->   52A    -.64306363424797E-06
        5A ->   53A    0.30425578050472E-05
        5A ->   54A    -.28016294505431E-05
        5A ->   55A    0.13241154757056E-06
        5A ->   56A    -.26144832479718E-05
        5A ->   57A    -.38255655624606E-05
        5A ->   58A    0.99082254921059E-06
        5A ->   59A    -.22095681639065E-05
        5A ->   60A    -.57522098068876E-07
        5A ->   61A    -.18748377390153E-06
        5A ->   62A    -.10134783635955E-05
        5A ->   63A    -.20491980217918E-05
        5A ->   64A    0.26107479051065E-05
        5A ->   65A    -.12826984393904E-05
        5A ->   66A    0.40271623935867E-06
        5A ->   67A    -.30350524140611E-05
        5A ->   68A    0.19793777215939E-05
        5A ->   69A    0.79656130204571E-07
        5A ->   70A    -.94213031959550E-06
        5A ->   71A    0.80290571387856E-05
        5A ->   72A    -.76296203972098E-06
        5A ->   73A    -.18368465015894E-05
        5A ->   74A    0.28471403633680E-05
        5A ->   75A    0.35030861733524E-05
        5A ->   76A    -.81412548801402E-05
        5A ->   77A    -.28228456302648E-05
        5A ->   78A    0.19314398084604E-05
        5A ->   79A    0.61679606462722E-06
        5A ->   80A    0.25273115869692E-05
        5A ->   81A    -.28963689954297E-05
        5A ->   82A    0.22920542831410E-05
        5A ->   83A    0.26018221254692E-05
        5A ->   84A    0.67245325984636E-06
        5A ->   85A    0.94723954435690E-06
        5A ->   86A    0.24818216430276E-05
        5A ->   87A    0.16937739068830E-05
        5A ->   88A    0.10287358497199E-06
        5A ->   89A    0.21445330392965E-05
        5A ->   90A    -.55560478231055E-06
        5A ->   91A    0.14525621965247E-05
        5A ->   92A    -.14774122566512E-05
        5A ->   93A    0.29168902075248E-06

 Alpha  occ. eigenvalues --  -19.04971 -19.03477 -14.38109 -10.18931 -10.17760
 Alpha  occ. eigenvalues --  -10.15352  -1.00723  -0.83060  -0.74514  -0.66566
 Alpha  occ. eigenvalues --   -0.58493  -0.47365  -0.40955  -0.39756  -0.36915
 Alpha  occ. eigenvalues --   -0.35125  -0.34143  -0.30709  -0.30409  -0.27653
 Alpha  occ. eigenvalues --   -0.25102  -0.15565  -0.14617  -0.11773  -0.02604
 Alpha virt. eigenvalues --    0.07160   0.07438   0.07495   0.08163   0.15488
 Alpha virt. eigenvalues --    0.17243   0.17278   0.18593   0.20409   0.20829
 Alpha virt. eigenvalues --    0.23519   0.24487   0.24877   0.27203   0.27685

  Beta  occ. eigenvalues --  -19.04290 -19.03034 -14.37022 -10.18948 -10.17747
  Beta  occ. eigenvalues --  -10.15353  -0.98774  -0.81620  -0.74307  -0.66189
  Beta  occ. eigenvalues --   -0.57625  -0.45935  -0.40191  -0.39443  -0.36243
  Beta  occ. eigenvalues --   -0.34444  -0.32918  -0.30004  -0.28535  -0.26969
  Beta  occ. eigenvalues --   -0.23707  -0.13941  -0.11222  -0.10636
  Beta virt. eigenvalues --    0.08069   0.08408   0.08663   0.09713   0.16441
  Beta virt. eigenvalues --    0.18177   0.18359   0.19845   0.21330   0.21501
  Beta virt. eigenvalues --    0.23836   0.24155   0.24873   0.25995   0.27785

 Mulliken atomic charges:
              1
     1  C   -0.371027
     2  C   -0.152736
     3  N   -0.161737
     4  H    0.147123
     5  H    0.110402
     6  O   -0.299714
     7  O   -0.472023
     8  C   -0.555915
     9  H    0.154480
    10  H    0.108941
    11  H    0.214486
    12  H    0.123039
    13  H    0.154682
 Sum of Mulliken atomic charges =  -1.00000

 Dipole moment (field-independent basis, Debye):
    X=             24.2796    Y=              7.0578    Z=             -9.3969  Tot=             26.9743
 Quadrupole moment (field-independent basis, Debye-Ang):
   XX=           -173.5408   YY=            -53.8506   ZZ=            -61.0928
   XY=            -35.8725   XZ=             47.7752   YZ=             13.8842

 Normal termination of Gaussian 09 at Fri Nov  4 21:06:24 2022.
