 Gaussian 09, Revision A.02,

 ----------------------------------------------------------------------
 #p wB97XD/GEN 6D Iop(6/7=3) Iop(9/40=14) scf(maxcyc=200,conver=8) nosy
 m Guess(Read,TCheck) GFInput Force
 ----------------------------------------------------------------------

 -------
 Comment
 -------
 Symbolic Z-matrix:
 Charge = -1 Multiplicity = 2

 SCF Done:  E(UwB97XD) =  -323.526217241     A.U. after   16 cycles
 Normal termination of Gaussian 09 at Fri Nov  4 21:11:40 2022.
 Gaussian 09:  EM64L-G09RevA.02 11-Jun-2009

 ----------------------------------------------------------------------
 #p TD(full,nstates=1) wB97XD/GEN 6D Iop(6/7=3) Iop(9/40=14) scf(maxcyc
 =200,conver=8) nosym Guess(Read) Geom=AllCheck
 ----------------------------------------------------------------------

 -------
 No Z-matrix found on checkpoint file.
 Cartesian coordinates read from the checkpoint file:
 an.chk
 Charge = -1 Multiplicity = 2

                          Input orientation:
 ---------------------------------------------------------------------
 Center     Atomic      Atomic             Coordinates (Angstroms)
 Number     Number       Type             X           Y           Z
 ---------------------------------------------------------------------
      1          6           0       -5.051791    0.471308    0.811591
      2          6           0       -3.760025    1.210425    0.886662
      3          7           0       -5.129081   -0.718195    1.739860
      4          1           0       -6.049857    1.023407    1.118451
      5          1           0       -5.120659   -0.028978   -0.262568
      6          8           0       -6.306784   -1.120372    2.003895
      7          8           0       -4.064017   -1.578085    1.904625
      8          6           0       -3.265900    1.603953    2.435795
      9          1           0       -2.987308    0.596532    0.314473
     10          1           0       -3.813488    2.088380    0.195126
     11          1           0       -3.148988    0.692422    3.033771
     12          1           0       -2.546432    2.375822    2.406516
     13          1           0       -4.119796    2.046167    2.734320
 ---------------------------------------------------------------------

 SCF Done:  E(UwB97XD) =  -323.526217241     A.U. after    1 cycles

 Excitation energies and oscillator strengths:

 Excited state symmetry could not be determined.
 Excited State   1:  2.016-?Sym    0.8825123655 eV 1404.90 nm  f=0.0098228799  <S**2>=0.766
        1A ->   26A    -.80182797845547E-06
        1A ->   27A    0.37229489754016E-05
        1A ->   28A    -.41971126394365E-06
        1A ->   29A    -.83377637888379E-06
        1A ->   30A    0.43000225202942E-06
        1A ->   31A    -.10096373063398E-05
        1A ->   32A    -.40224679244108E-05
        1A ->   33A    -.11288766256083E-05
        1A ->   34A    -.14806103359435E-05
        1A ->   35A    -.93618672488102E-07
        1A ->   36A    0.41922276022576E-06
        1A ->   37A    0.11700094426685E-05
        1A ->   38A    0.10498048758490E-06
        1A ->   39A    -.61489424544897E-07
        1A ->   40A    -.89123071731202E-06
        1A ->   41A    -.30239416842176E-06
        1A ->   42A    0.11339627883542E-05
        1A ->   43A    -.80977319364519E-06
        1A ->   44A    0.65401695384726E-06
        1A ->   45A    -.86266937169985E-06
        1A ->   46A    0.45525681789407E-06
        1A ->   47A    0.16954668425731E-05
        1A ->   48A    0.10894737942806E-05
        1A ->   49A    -.55143057262605E-06
        1A ->   50A    -.28425915790377E-06
        1A ->   51A    0.10444907357272E-05
        1A ->   52A    -.31994183542575E-06
        1A ->   53A    -.77392486241322E-06
        1A ->   54A    -.37309695455548E-06
        1A ->   55A    -.12514310914678E-06
        1A ->   56A    -.11654407188133E-05
        1A ->   57A    0.58182013505204E-06
        1A ->   58A    0.79150864600083E-06
        1A ->   59A    -.44928033459386E-06
        1A ->   60A    0.51736661340651E-06
        1A ->   61A    -.54024601981601E-06
        1A ->   62A    -.30916334059390E-06
        1A ->   63A    0.41017076195623E-06
        1A ->   64A    0.50428687858701E-06
        1A ->   65A    0.56423690988203E-06
        1A ->   66A    0.14740966308391E-05
        1A ->   67A    -.13556256348357E-05
        1A ->   68A    -.21332739674770E-05
        1A ->   69A    0.23789844521755E-05
        1A ->   70A    0.81553608109679E-07
        1A ->   71A    -.14358776524599E-06
        1A ->   72A    -.23826315311967E-06
        1A ->   73A    0.44021647645424E-06
        1A ->   74A    -.86988950888091E-07
        1A ->   75A    -.68447977080504E-06
        1A ->   76A    0.27353531752913E-06
        1A ->   77A    0.39493256203949E-07
        1A ->   78A    -.17654914977968E-06
        1A ->   79A    0.89095013193520E-07
        1A ->   80A    -.18125494471022E-06
        1A ->   81A    0.33207531573576E-06
        1A ->   82A    -.20745128420289E-07
        1A ->   83A    -.14451791003029E-06
        1A ->   84A    0.68367018500886E-06
        1A ->   85A    0.21183665097615E-06
        1A ->   86A    -.28672723741359E-06
        1A ->   87A    -.52575851546379E-07
        1A ->   88A    -.46124790395784E-06
        1A ->   89A    0.34720509094104E-05
        1A ->   90A    -.52822403192499E-06
        1A ->   91A    -.19220353398640E-05
        1A ->   92A    0.13991486753629E-05
        1A ->   93A    -.22849875946214E-05
        1A ->   94A    0.23759334634713E-05
        1A ->   95A    -.15600033625042E-05
        1A ->   96A    -.17931593959730E-05
        1A ->   97A    -.41419853421262E-06
        1A ->   98A    0.19668268850982E-05
        1A ->   99A    -.52926873987549E-06
        1A ->  100A    0.11733963923056E-05
        1A ->  101A    -.49269461531172E-06
        1A ->  102A    0.90363788868083E-06
        1A ->  103A    -.11782416533270E-05
        1A ->  104A    0.77336209670875E-06
        1A ->  105A    0.76542451657254E-06
        1A ->  106A    -.42668739537624E-05
        1A ->  107A    0.85164601518554E-06
        1A ->  108A    0.10137011225311E-06
        1A ->  109A    -.20056765458026E-05
        1A ->  110A    0.48139943311997E-07
        1A ->  111A    -.14632654531387E-05
        1A ->  112A    -.10106176362521E-06
        1A ->  113A    0.50701549467131E-06
        1A ->  114A    0.19502641172912E-05
        1A ->  115A    -.56339884635455E-06
        1A ->  116A    0.15583598771071E-05
        1A ->  117A    0.10043977010574E-05
        1A ->  118A    -.20457073892617E-05
        1A ->  119A    -.10182310923049E-05
        1A ->  120A    -.38747268493052E-06
        1A ->  121A    0.12861979144821E-06
        1A ->  122A    0.91073742522837E-07
        1A ->  123A    0.11317375232444E-06
        1A ->  124A    0.15523943604281E-05
        1A ->  125A    0.36837650688026E-06
        1A ->  126A    -.28345586116724E-06
        1A ->  127A    -.17987111974134E-06
        1A ->  128A    0.28738707177691E-06
        1A ->  129A    0.12035262587850E-05
        1A ->  130A    -.22289716453482E-06
        1A ->  131A    -.72265601861491E-06
        1A ->  132A    0.17832891846404E-06
        1A ->  133A    0.74753002262636E-06
        1A ->  134A    0.35255996479941E-06
        1A ->  135A    -.18268128066722E-06
        1A ->  136A    0.58954933857014E-06
        1A ->  137A    -.75696075084672E-06
        1A ->  138A    -.17140046654735E-05
        1A ->  139A    0.61474308391776E-06
        1A ->  140A    -.64922367954755E-06
        1A ->  141A    0.17749225114429E-05
        1A ->  142A    0.48505377047115E-06
        1A ->  143A    -.29945296016795E-05
        1A ->  144A    0.21833807370231E-05
        1A ->  145A    0.14741520801774E-05
        1A ->  146A    0.14404508142522E-06
        1A ->  147A    -.93308297559790E-07
        1A ->  148A    0.26519469177728E-07
        1A ->  149A    -.96298155833038E-07
        1A ->  150A    0.34709697251108E-06
        1A ->  151A    -.10801456771634E-06
        1A ->  152A    -.11263897954970E-08
        1A ->  153A    -.47997166524019E-05
        1A ->  154A    -.29574699707553E-05
        1A ->  155A    -.22154759410354E-06
        1A ->  156A    0.58081161774628E-05
        1A ->  157A    0.11612671868880E-05
        2A ->   26A    -.41270285635063E-06
        2A ->   27A    0.32824765989747E-05
        2A ->   28A    0.21819288468912E-06
        2A ->   29A    -.81803310171074E-06
        2A ->   30A    0.27513240220872E-06
        2A ->   31A    -.22480869554160E-05
        2A ->   32A    -.27429279490247E-05
        2A ->   33A    -.11336175978648E-05
        2A ->   34A    -.49961520554527E-06
        2A ->   35A    -.80179545484591E-06
        2A ->   36A    0.86980346763049E-07
        2A ->   37A    -.41208563998285E-06
        2A ->   38A    0.27623825939337E-07
        2A ->   39A    0.31834012399766E-06
        2A ->   40A    -.41931498849995E-06
        2A ->   41A    -.15598425172798E-06
        2A ->   42A    0.66973358474438E-07
        2A ->   43A    -.32205757133438E-06
        2A ->   44A    0.80203172795110E-06
        2A ->   45A    0.49712532975017E-06
        2A ->   46A    0.13608855113495E-05
        2A ->   47A    -.92597572795600E-06
        2A ->   48A    -.36497292598414E-06
        2A ->   49A    0.61641274967490E-06
        2A ->   50A    -.21837844470471E-05
        2A ->   51A    -.31215517173219E-06
        2A ->   52A    -.13847209433226E-05
        2A ->   53A    -.38161510038132E-06
        2A ->   54A    -.11505880910814E-06
        2A ->   55A    -.50510486945651E-06
        2A ->   56A    -.38517163289767E-06
        2A ->   57A    -.12693279556496E-06
        2A ->   58A    -.32516219538860E-06
        2A ->   59A    0.86909521619245E-06
        2A ->   60A    0.45236518527783E-07
        2A ->   61A    0.71869146512582E-06
        2A ->   62A    0.63208277400652E-07
        2A ->   63A    -.62598383690918E-06
        2A ->   64A    -.42195292654528E-06
        2A ->   65A    -.94743575744884E-07
        2A ->   66A    -.56097526675642E-06
        2A ->   67A    0.15889313342078E-05
        2A ->   68A    -.19175330911125E-05
        2A ->   69A    -.16648990721854E-05
        2A ->   70A    0.13688602055292E-06
        2A ->   71A    0.61167808649143E-06
        2A ->   72A    0.63143007194235E-06
        2A ->   73A    -.65785082334309E-06
        2A ->   74A    -.46938600611526E-07
        2A ->   75A    0.24908736638590E-06
        2A ->   76A    -.93687289476347E-08
        2A ->   77A    0.17617922576499E-06
        2A ->   78A    -.38071792079035E-07
        2A ->   79A    -.14841876596173E-06
        2A ->   80A    0.39146700900940E-06
        2A ->   81A    0.50049651254232E-06
        2A ->   82A    -.16791591579914E-07
        2A ->   83A    0.96272216153289E-07
        2A ->   84A    0.44991741386888E-06
        2A ->   85A    0.39965293766610E-06
        2A ->   86A    -.86759738038109E-06
        2A ->   87A    0.19577530800859E-06
        2A ->   88A    -.15234178306118E-06
        2A ->   89A    0.17617688088391E-05
        2A ->   90A    -.20881831810884E-05
        2A ->   91A    -.15998932220350E-05
        2A ->   92A    0.51598745565115E-06
        2A ->   93A    -.88389928220255E-06
        2A ->   94A    -.14303382076238E-05
        2A ->   95A    -.15814722771779E-06
        2A ->   96A    0.36090680904436E-05
        2A ->   97A    0.17664249743199E-05
        2A ->   98A    -.12961658277166E-05
        2A ->   99A    0.49803391493045E-06
        2A ->  100A    0.42792976712135E-06
        2A ->  101A    0.13053174848280E-05
        2A ->  102A    -.61087766144904E-06
        2A ->  103A    -.17841360017424E-05
        2A ->  104A    -.66878293404598E-06
        2A ->  105A    0.19786509931643E-05
        2A ->  106A    -.60813062781317E-06
        2A ->  107A    -.17088835094307E-07
        2A ->  108A    -.27105010573765E-05
        2A ->  109A    0.23760771332962E-05
        2A ->  110A    -.57575648738561E-06
        2A ->  111A    -.27895973975268E-06
        2A ->  112A    -.16178615361652E-06
        2A ->  113A    0.12037507592730E-05
        2A ->  114A    0.28385527152217E-07
        2A ->  115A    -.36768773774760E-05
        2A ->  116A    -.20064468043200E-06
        2A ->  117A    0.73454751566391E-06
        2A ->  118A    0.50584911392202E-06
        2A ->  119A    -.50006480800491E-07
        2A ->  120A    0.10648579787315E-05
        2A ->  121A    0.26685348717289E-06
        2A ->  122A    0.52559716809078E-06
        2A ->  123A    0.47002400370355E-06
        2A ->  124A    -.84682302924428E-07
        2A ->  125A    0.95327351285344E-07
        2A ->  126A    0.63864038074909E-06
        2A ->  127A    -.75389861869787E-06
        2A ->  128A    -.31045294987618E-06
        2A ->  129A    -.69228088567544E-06
        2A ->  130A    -.78218969294401E-06
        2A ->  131A    0.12310636503393E-05
        2A ->  132A    0.13906818884132E-05
        2A ->  133A    -.16612571637488E-06
        2A ->  134A    -.31374385188654E-06
        2A ->  135A    0.41925649136148E-06
        2A ->  136A    0.13788622296446E-06
        2A ->  137A    0.74632538588756E-06
        2A ->  138A    0.22685231547187E-05
        2A ->  139A    -.12017250672835E-05
        2A ->  140A    0.74171808444100E-06
        2A ->  141A    0.16747975240840E-05
        2A ->  142A    0.54712470857083E-06
        2A ->  143A    -.15278403182509E-05
        2A ->  144A    -.25719549594727E-05
        2A ->  145A    0.38696967093034E-07
        2A ->  146A    0.71186117678576E-07
        2A ->  147A    -.83268354203602E-07
        2A ->  148A    0.46169305436314E-06
        2A ->  149A    -.22295878633549E-06
        2A ->  150A    -.73602215581890E-06
        2A ->  151A    0.21445748443304E-06
        2A ->  152A    0.83252810180686E-07
        2A ->  153A    -.46211063921929E-05
        2A ->  154A    -.37736912284340E-05
        2A ->  155A    -.13422285345521E-05
        2A ->  156A    -.46138404343264E-05
        2A ->  157A    -.48760112159668E-06
        3A ->   26A    0.15342492923066E-05
        3A ->   27A    -.75165641589394E-05
        3A ->   28A    0.38657105343323E-06
        3A ->   29A    0.18264349619278E-05
        3A ->   30A    -.17862750920864E-05
        3A ->   31A    0.35985101927549E-05
        3A ->   32A    0.84920405338869E-05
        3A ->   33A    0.26153897412561E-05
        3A ->   34A    0.69190611077232E-06
        3A ->   35A    0.35201245756588E-05
        3A ->   36A    -.11177085241777E-05
        3A ->   37A    -.32000101110437E-05
        3A ->   38A    0.74359840067143E-06
        3A ->   39A    -.41873775728206E-05
        3A ->   40A    -.16512224994049E-05
        3A ->   41A    0.29501033732382E-07
        3A ->   42A    -.15802761158465E-05
        3A ->   43A    -.26288657365139E-05
        3A ->   44A    -.16949430437416E-05
        3A ->   45A    -.23259383445547E-05
        3A ->   46A    -.13820324346845E-04
        3A ->   47A    -.50051168920844E-05
        3A ->   48A    0.36972254902161E-05
        3A ->   49A    0.13104019030056E-04
        3A ->   50A    0.60956758563262E-05
        3A ->   51A    0.13534131645167E-05
        3A ->   52A    0.14762223071989E-04
        3A ->   53A    0.24335094395612E-06
        3A ->   54A    0.56288296197313E-05
        3A ->   55A    0.88531141856494E-07
        3A ->   56A    -.62207511390578E-05
        3A ->   57A    0.29251256388462E-05
        3A ->   58A    0.39810896611155E-05
        3A ->   59A    0.16280655325757E-05
        3A ->   60A    -.60817601131532E-05
        3A ->   61A    -.19565067527170E-05
        3A ->   62A    -.13742213078425E-05
        3A ->   63A    -.31756956914965E-05
        3A ->   64A    -.55739805328345E-05
        3A ->   65A    0.54479203940152E-05
        3A ->   66A    -.31125549612000E-05
        3A ->   67A    0.79624068430480E-05
        3A ->   68A    -.14141888993245E-05
        3A ->   69A    0.13224364716668E-05
        3A ->   70A    0.11896073385585E-05
        3A ->   71A    -.56054985262051E-05
        3A ->   72A    -.85515015105149E-06
        3A ->   73A    0.21621710714062E-05
        3A ->   74A    -.80482936031186E-06
        3A ->   75A    0.39458441800404E-05
        3A ->   76A    -.47476914612864E-05
        3A ->   77A    0.14826493778734E-05
        3A ->   78A    -.48309566507805E-06
        3A ->   79A    0.36703985755776E-05
        3A ->   80A    -.17306511563867E-05
        3A ->   81A    0.21086127368040E-05
        3A ->   82A    -.57641922620115E-05
        3A ->   83A    0.29040642978878E-05
        3A ->   84A    0.56296984376744E-05
        3A ->   85A    -.17751028535117E-06
        3A ->   86A    -.80052149221321E-07
        3A ->   87A    -.60435295006086E-06
        3A ->   88A    -.19932288612382E-05
        3A ->   89A    0.20406002575279E-05
        3A ->   90A    -.82762402796951E-06
        3A ->   91A    0.51867772130634E-06
        3A ->   92A    0.84704944198670E-06
        3A ->   93A    0.18625259814744E-05
        3A ->   94A    -.41994401922429E-05
        3A ->   95A    -.95907891312450E-06
        3A ->   96A    0.78493559066707E-06
        3A ->   97A    0.13155652096575E-06
        3A ->   98A    0.68876356402298E-05
        3A ->   99A    -.12309478064379E-05
        3A ->  100A    0.21633891567070E-05
        3A ->  101A    0.26033646228218E-05
        3A ->  102A    -.14119806205508E-05
        3A ->  103A    -.81048019185371E-05
        3A ->  104A    -.15161444241535E-05
        3A ->  105A    0.16525260181858E-05
        3A ->  106A    -.55859526215852E-05
        3A ->  107A    -.23173567562346E-06
        3A ->  108A    0.72196242214434E-05
        3A ->  109A    0.35063224605056E-05
        3A ->  110A    0.13525750344825E-05
        3A ->  111A    0.26988297918994E-06
        3A ->  112A    -.37821800583932E-05
        3A ->  113A    0.66696028563981E-05
        3A ->  114A    0.32254895368503E-05
        3A ->  115A    -.52335302389392E-06
        3A ->  116A    -.43677706400836E-05
        3A ->  117A    -.90157626279564E-06
        3A ->  118A    0.26141627913548E-05
        3A ->  119A    0.96079158184399E-05
        3A ->  120A    0.50541748973808E-05
        3A ->  121A    -.51474898786947E-05
        3A ->  122A    0.48916794857906E-05
        3A ->  123A    0.34301051227708E-05
        3A ->  124A    -.45657322422213E-05
        3A ->  125A    0.22604797394694E-05
        3A ->  126A    -.66673933307291E-05
        3A ->  127A    -.39103024123750E-05
        3A ->  128A    0.68042303038372E-05
        3A ->  129A    0.32635575804256E-05
        3A ->  130A    -.16106482393082E-05
        3A ->  131A    0.33385731123811E-05
        3A ->  132A    -.38169858456543E-05
        3A ->  133A    0.34619228164054E-05
        3A ->  134A    -.99590232155595E-06
        3A ->  135A    0.26854166227301E-05
        3A ->  136A    -.67935821654320E-06
        3A ->  137A    0.16550764291771E-05
        3A ->  138A    0.20300356161473E-07
        3A ->  139A    -.12142932651884E-05
        3A ->  140A    -.28510054812543E-07
        3A ->  141A    0.46628496063821E-07
        3A ->  142A    0.15274600322371E-05
        3A ->  143A    -.52489850510935E-06
        3A ->  144A    -.95773659865452E-06
        3A ->  145A    0.71148129861235E-06
        3A ->  146A    -.87679541093991E-06
        3A ->  147A    -.33899765563780E-06
        3A ->  148A    -.89577211664338E-08
        3A ->  149A    0.45387892860426E-06
        3A ->  150A    0.26004358504237E-06
        3A ->  151A    -.11238424673054E-05
        3A ->  152A    -.24778779696535E-04
        3A ->  153A    0.39028722732556E-05
        3A ->  154A    -.38577688033963E-05
        3A ->  155A    -.30705521135108E-05
        3A ->  156A    0.19467196495097E-05
        3A ->  157A    -.33437963787021E-05
        4A ->   26A    -.27728208783515E-05
        4A ->   27A    0.13908645541380E-06
        4A ->   28A    0.20265378784347E-06
        4A ->   29A    0.14796752100090E-06
        4A ->   30A    0.38891224772489E-05
        4A ->   31A    -.10340894570987E-05
        4A ->   32A    -.11285677350951E-05
        4A ->   33A    0.20684467008610E-05
        4A ->   34A    0.73460033590128E-06
        4A ->   35A    -.98904530943189E-07
        4A ->   36A    -.13448441823771E-05
        4A ->   37A    0.15782978601504E-05
        4A ->   38A    0.18867808507264E-05
        4A ->   39A    0.56740566905154E-06
        4A ->   40A    -.21983985441799E-05
        4A ->   41A    -.44966631020065E-05
        4A ->   42A    0.21007981622633E-05
        4A ->   43A    -.85619159263239E-06
        4A ->   44A    -.16358587381951E-06
        4A ->   45A    0.69241802831431E-06
        4A ->   46A    -.10131904959242E-04
        4A ->   47A    -.33155474599384E-05
        4A ->   48A    0.20323119637742E-05
        4A ->   49A    0.62914933398893E-05
        4A ->   50A    0.22510972738574E-05
        4A ->   51A    0.30718863942128E-05
        4A ->   52A    0.53262202093260E-05
        4A ->   53A    -.52622248473678E-05
        4A ->   54A    0.22224563189064E-05
        4A ->   55A    -.82647114463268E-06
        4A ->   56A    -.68838483179476E-05
        4A ->   57A    -.62292179072434E-06
        4A ->   58A    0.27951051393287E-05
        4A ->   59A    0.10723899059870E-05
        4A ->   60A    -.33083588261091E-05
        4A ->   61A    -.27122577569968E-05
        4A ->   62A    -.28721830019658E-05
        4A ->   63A    0.59906213800703E-06
        4A ->   64A    -.28683930367424E-05
        4A ->   65A    -.69085639209089E-05
        4A ->   66A    -.23968064709956E-05
        4A ->   67A    0.10867745892328E-05
        4A ->   68A    0.14608688100187E-05
        4A ->   69A    -.24489370794817E-05
        4A ->   70A    -.95003422259018E-06
        4A ->   71A    -.15040472765225E-04
        4A ->   72A    -.34657665380855E-05
        4A ->   73A    0.98250758765555E-05
        4A ->   74A    0.33214757901939E-05
        4A ->   75A    0.10303872586354E-04
        4A ->   76A    -.11886957173125E-04
        4A ->   77A    0.36548205697170E-05
        4A ->   78A    -.22216596248500E-05
        4A ->   79A    -.80189400574255E-06
        4A ->   80A    -.24317519070800E-05
        4A ->   81A    -.29030037611467E-05
        4A ->   82A    0.46617780685867E-06
        4A ->   83A    -.12645587703771E-05
        4A ->   84A    -.27685752156255E-05
        4A ->   85A    0.36116487278002E-05
        4A ->   86A    -.52707129574713E-06
        4A ->   87A    0.37944467270038E-06
        4A ->   88A    0.10634091318052E-05
        4A ->   89A    0.78079061845468E-06
        4A ->   90A    -.10335866589268E-05
        4A ->   91A    -.98549765353283E-06
        4A ->   92A    -.70152081720307E-06
        4A ->   93A    -.14693922904885E-05
        4A ->   94A    0.53825213429531E-07
        4A ->   95A    0.12251966289115E-05
        4A ->   96A    -.35340210366429E-06
        4A ->   97A    0.17130908734780E-06
        4A ->   98A    -.28841284757249E-05
        4A ->   99A    -.24010594166953E-05
        4A ->  100A    -.67107709531305E-07
        4A ->  101A    -.21384695767527E-05
        4A ->  102A    -.69463320552206E-06
        4A ->  103A    0.27872631243874E-05
        4A ->  104A    -.24310619477986E-05
        4A ->  105A    0.16486008740965E-05
        4A ->  106A    0.30797361225361E-05
        4A ->  107A    0.23715535251870E-05
        4A ->  108A    -.63813207131953E-05
        4A ->  109A    -.28040722049664E-05
        4A ->  110A    0.50643819884593E-06
        4A ->  111A    -.14949064955123E-05
        4A ->  112A    0.16274699781642E-06
        4A ->  113A    -.17704994225670E-05
        4A ->  114A    0.39246137208714E-06
        4A ->  115A    -.15385543864503E-05
        4A ->  116A    0.37666609043020E-05
        4A ->  117A    0.15670222120511E-05
        4A ->  118A    0.51682839439544E-06
        4A ->  119A    -.11522282527019E-05
        4A ->  120A    0.12066877428715E-05
        4A ->  121A    -.11656773812221E-06
        4A ->  122A    0.25797402029262E-05
        4A ->  123A    -.52869233977790E-07
        4A ->  124A    0.28456427957149E-05
        4A ->  125A    0.99537722980864E-06
        4A ->  126A    0.84835899511603E-06
        4A ->  127A    0.13496932057494E-05
        4A ->  128A    -.15985967347884E-05
        4A ->  129A    0.15048493139104E-05
        4A ->  130A    0.19310815367814E-05
        4A ->  131A    -.10144933479717E-05
        4A ->  132A    0.13674169650960E-05
        4A ->  133A    -.16935081470509E-05
        4A ->  134A    0.92513974765774E-06
        4A ->  135A    -.22594688410524E-05
        4A ->  136A    0.14698840244936E-05
        4A ->  137A    -.15195252290471E-05
        4A ->  138A    0.21877560393467E-06
        4A ->  139A    0.13578976851190E-05
        4A ->  140A    -.37868675019824E-06
        4A ->  141A    0.15059562809557E-05
        4A ->  142A    0.66636969628387E-07
        4A ->  143A    0.76920436289826E-06
        4A ->  144A    -.20498875888827E-05
        4A ->  145A    0.59424070583847E-05
        4A ->  146A    0.20405705306064E-06
        4A ->  147A    -.62634384628253E-06
        4A ->  148A    0.15143611783447E-07
        4A ->  149A    0.96046326636044E-06
        4A ->  150A    0.86614662237304E-06
        4A ->  151A    0.10252277276057E-06
        4A ->  152A    0.10998887884297E-05
        4A ->  153A    0.28451027177632E-06
        4A ->  154A    0.61959907965433E-06
        4A ->  155A    0.79542113480965E-06
        4A ->  156A    -.16485010868380E-06
        4A ->  157A    0.44307411848508E-06
        5A ->   26A    -.33369223370541E-06
        5A ->   27A    -.36323405191661E-06
        5A ->   28A    0.60912083108430E-06
        5A ->   29A    0.64504284341513E-07
        5A ->   30A    0.84926056110840E-06
        5A ->   31A    -.97035801904908E-06
        5A ->   32A    0.50974464218871E-06
        5A ->   33A    0.18214852577959E-06
        5A ->   34A    0.90385964297407E-06
        5A ->   35A    0.15781101119951E-05
        5A ->   36A    -.37849494188399E-06
        5A ->   37A    0.96187564341285E-06
        5A ->   38A    0.97307701179578E-06
        5A ->   39A    -.21922628868191E-06
        5A ->   40A    -.45617331427448E-07
        5A ->   41A    -.75426527864992E-06
        5A ->   42A    0.29353440998453E-06
        5A ->   43A    -.47743329704001E-06
        5A ->   44A    0.17548350640895E-05
        5A ->   45A    -.36093726811068E-06
        5A ->   46A    -.91903922894038E-06
        5A ->   47A    0.53371730002607E-06
        5A ->   48A    0.11782033238593E-05
        5A ->   49A    0.15099526584456E-05
        5A ->   50A    -.97318692138623E-06
        5A ->   51A    -.27099658616341E-06
        5A ->   52A    -.60348829263997E-06
        5A ->   53A    0.29388013385714E-05
        5A ->   54A    -.28614920985229E-05
        5A ->   55A    0.48343367713409E-06
        5A ->   56A    -.23944065615287E-05
        5A ->   57A    -.39982542980703E-05
        5A ->   58A    0.98852247543805E-06
        5A ->   59A    -.23124755690479E-05
        5A ->   60A    -.13835205238741E-07
        5A ->   61A    -.32314648643871E-06
        5A ->   62A    0.12030318308589E-05
        5A ->   63A    -.14197013497035E-05
        5A ->   64A    0.29604779321302E-05
        5A ->   65A    -.13069002371334E-05
        5A ->   66A    0.23907146426080E-06
        5A ->   67A    -.31135865060288E-05
        5A ->   68A    0.19915872519844E-05
        5A ->   69A    0.88359222305279E-07
        5A ->   70A    -.81953729360034E-06
        5A ->   71A    0.81285886691926E-05
        5A ->   72A    -.82556086539997E-06
        5A ->   73A    -.22397321230807E-05
        5A ->   74A    0.24653484433306E-05
        5A ->   75A    0.34997493304522E-05
        5A ->   76A    -.82778815646899E-05
        5A ->   77A    0.27918464993138E-05
        5A ->   78A    -.19961418532420E-05
        5A ->   79A    0.70057707703160E-06
        5A ->   80A    0.23524316665894E-05
        5A ->   81A    -.30830582614599E-05
        5A ->   82A    0.22436583724366E-05
        5A ->   83A    0.25046747084541E-05
        5A ->   84A    0.73462544558093E-06
        5A ->   85A    0.93650301661182E-06
        5A ->   86A    0.26928410802297E-05
        5A ->   87A    0.17006518067937E-05
        5A ->   88A    0.19176393711662E-06
        5A ->   89A    0.22126586640256E-05
        5A ->   90A    0.59234227129772E-06
        5A ->   91A    0.14682318305702E-05
        5A ->   92A    -.15043398734691E-05
        5A ->   93A    0.22764701792397E-06

 Alpha  occ. eigenvalues --  -19.05009 -19.03523 -14.38175 -10.19136 -10.17689
 Alpha  occ. eigenvalues --  -10.15384  -1.00844  -0.83155  -0.74489  -0.66496
 Alpha  occ. eigenvalues --   -0.58571  -0.47325  -0.40861  -0.39786  -0.36888
 Alpha  occ. eigenvalues --   -0.35121  -0.34157  -0.30769  -0.30447  -0.27688
 Alpha  occ. eigenvalues --   -0.25051  -0.15607  -0.14656  -0.11827  -0.02587
 Alpha virt. eigenvalues --    0.07159   0.07437   0.07491   0.08158   0.15489
 Alpha virt. eigenvalues --    0.17241   0.17280   0.18582   0.20405   0.20827
 Alpha virt. eigenvalues --    0.23501   0.24486   0.24869   0.27201   0.27662

  Beta  occ. eigenvalues --  -19.04329 -19.03083 -14.37092 -10.19155 -10.17676
  Beta  occ. eigenvalues --  -10.15385  -0.98900  -0.81721  -0.74285  -0.66117
  Beta  occ. eigenvalues --   -0.57707  -0.45915  -0.40088  -0.39428  -0.36209
  Beta  occ. eigenvalues --   -0.34469  -0.32917  -0.30069  -0.28543  -0.27082
  Beta  occ. eigenvalues --   -0.23658  -0.13981  -0.11278  -0.10699
  Beta virt. eigenvalues --    0.08087   0.08431   0.08679   0.09753   0.16442
  Beta virt. eigenvalues --    0.18187   0.18371   0.19848   0.21329   0.21507
  Beta virt. eigenvalues --    0.23822   0.24131   0.24873   0.25998   0.27795

 Mulliken atomic charges:
              1
     1  C   -0.375225
     2  C   -0.150208
     3  N   -0.158860
     4  H    0.146350
     5  H    0.108084
     6  O   -0.299223
     7  O   -0.471988
     8  C   -0.556400
     9  H    0.155820
    10  H    0.109658
    11  H    0.215281
    12  H    0.122236
    13  H    0.154475
 Sum of Mulliken atomic charges =  -1.00000

 Dipole moment (field-independent basis, Debye):
    X=             24.2800    Y=              7.0526    Z=             -9.3559  Tot=             26.9591
 Quadrupole moment (field-independent basis, Debye-Ang):
   XX=           -173.5624   YY=            -53.8285   ZZ=            -61.0946
   XY=            -35.8563   XZ=             47.5220   YZ=             13.8523

 Normal termination of Gaussian 09 at Fri Nov  4 21:14:16 2022.
