 Gaussian 09, Revision A.02,
 Gaussian 09:  EM64L-G09RevA.02 11-Jun-2009

 ----------------------------------------------------------------------
 #p wB97XD/GEN 6D Iop(6/7=3) Iop(9/40=14) scf(maxcyc=200,conver=8) nosy
 m Guess(Read,TCheck) GFInput
 ----------------------------------------------------------------------

 -------
 Comment
 -------
 Symbolic Z-matrix:
 Charge =  0 Multiplicity = 1

                          Input orientation:
 ---------------------------------------------------------------------
 Center     Atomic      Atomic             Coordinates (Angstroms)
 Number     Number       Type             X           Y           Z
 ---------------------------------------------------------------------
      1          6           0       -5.051226    0.470784    0.809591
      2          6           0       -3.760154    1.211317    0.889299
      3          7           0       -5.128800   -0.717089    1.739894
      4          1           0       -6.046911    1.014469    1.117772
      5          1           0       -5.120514   -0.017836   -0.253650
      6          8           0       -6.307385   -1.120645    2.004308
      7          8           0       -4.063791   -1.578583    1.904516
      8          6           0       -3.266390    1.603928    2.435240
      9          1           0       -2.990650    0.589255    0.308686
     10          1           0       -3.810403    2.092605    0.194831
     11          1           0       -3.143649    0.694804    3.039587
     12          1           0       -2.548135    2.368979    2.396744
     13          1           0       -4.123568    2.044252    2.729828
 ---------------------------------------------------------------------

 SCF Done:  E(RwB97XD) =  -323.489069154     A.U. after   12 cycles

 Alpha  occ. eigenvalues --  -19.34237 -19.32170 -14.70063 -10.40021 -10.34321
 Alpha  occ. eigenvalues --  -10.30582  -1.28336  -1.10283  -0.94929  -0.84997
 Alpha  occ. eigenvalues --   -0.77618  -0.69321  -0.62204  -0.61526  -0.59549
 Alpha  occ. eigenvalues --   -0.55037  -0.53877  -0.50294  -0.48569  -0.45173
 Alpha  occ. eigenvalues --   -0.42697  -0.40424  -0.39163  -0.38020
 Alpha virt. eigenvalues --   -0.05210   0.00739   0.01355   0.01436   0.01719
 Alpha virt. eigenvalues --    0.04630   0.06245   0.06716   0.07267   0.09348
 Alpha virt. eigenvalues --    0.09835   0.10938   0.11857   0.12396   0.13635

 Mulliken atomic charges:
              1
     1  C   -0.283726
     2  C   -0.245269
     3  N   -0.120156
     4  H    0.196075
     5  H    0.206422
     6  O    0.017177
     7  O   -0.135114
     8  C   -0.520702
     9  H    0.176452
    10  H    0.168698
    11  H    0.196563
    12  H    0.175506
    13  H    0.168076
 Sum of Mulliken atomic charges =  -0.00000

 Dipole moment (field-independent basis, Debye):
    X=              0.3675    Y=              3.9995    Z=             -2.0651  Tot=              4.5161
 Quadrupole moment (field-independent basis, Debye-Ang):
   XX=            -43.1321   YY=            -39.9482   ZZ=            -40.9044
   XY=            -18.6118   XZ=             11.1925   YZ=              7.7192

 Normal termination of Gaussian 09 at Fri Nov  4 21:06:46 2022.
