 Gaussian 09, Revision A.02,
 Gaussian 09:  EM64L-G09RevA.02 11-Jun-2009

 ----------------------------------------------------------------------
 #p wB97XD/GEN 6D Iop(6/7=3) Iop(9/40=14) scf(maxcyc=200,conver=8) nosy
 m Guess(Read,TCheck) GFInput
 ----------------------------------------------------------------------

 -------
 Comment
 -------
 Symbolic Z-matrix:
 Charge =  0 Multiplicity = 1

                          Input orientation:
 ---------------------------------------------------------------------
 Center     Atomic      Atomic             Coordinates (Angstroms)
 Number     Number       Type             X           Y           Z
 ---------------------------------------------------------------------
      1          6           0       -5.051791    0.471308    0.811591
      2          6           0       -3.760025    1.210425    0.886662
      3          7           0       -5.129081   -0.718195    1.739860
      4          1           0       -6.049857    1.023407    1.118451
      5          1           0       -5.120659   -0.028978   -0.262568
      6          8           0       -6.306784   -1.120372    2.003895
      7          8           0       -4.064017   -1.578085    1.904625
      8          6           0       -3.265900    1.603953    2.435795
      9          1           0       -2.987308    0.596532    0.314473
     10          1           0       -3.813488    2.088380    0.195126
     11          1           0       -3.148988    0.692422    3.033771
     12          1           0       -2.546432    2.375822    2.406516
     13          1           0       -4.119796    2.046167    2.734320
 ---------------------------------------------------------------------

 SCF Done:  E(RwB97XD) =  -323.488378285     A.U. after   12 cycles

 Alpha  occ. eigenvalues --  -19.34225 -19.32154 -14.70080 -10.40195 -10.34235
 Alpha  occ. eigenvalues --  -10.30602  -1.28418  -1.10334  -0.94868  -0.84950
 Alpha  occ. eigenvalues --   -0.77618  -0.69290  -0.62145  -0.61522  -0.59578
 Alpha  occ. eigenvalues --   -0.55010  -0.53769  -0.50317  -0.48509  -0.45178
 Alpha  occ. eigenvalues --   -0.42682  -0.40415  -0.39173  -0.38027
 Alpha virt. eigenvalues --   -0.05172   0.00738   0.01354   0.01436   0.01718
 Alpha virt. eigenvalues --    0.04612   0.06248   0.06720   0.07267   0.09339
 Alpha virt. eigenvalues --    0.09838   0.10905   0.11852   0.12365   0.13594

 Mulliken atomic charges:
              1
     1  C   -0.280601
     2  C   -0.248687
     3  N   -0.119291
     4  H    0.196166
     5  H    0.204656
     6  O    0.017014
     7  O   -0.135563
     8  C   -0.520800
     9  H    0.178076
    10  H    0.168799
    11  H    0.196809
    12  H    0.175210
    13  H    0.168211
 Sum of Mulliken atomic charges =  -0.00000

 Dipole moment (field-independent basis, Debye):
    X=              0.3627    Y=              4.0008    Z=             -2.0631  Tot=              4.5160
 Quadrupole moment (field-independent basis, Debye-Ang):
   XX=            -43.0962   YY=            -39.9248   ZZ=            -40.9090
   XY=            -18.6250   XZ=             11.1516   YZ=              7.7456

 Normal termination of Gaussian 09 at Fri Nov  4 21:14:38 2022.
