 Gaussian 09, Revision A.02,

 ----------------------------------------------------------------------
 #p wB97XD/GEN 6D Iop(6/7=3) Iop(9/40=14) scf(maxcyc=200,conver=8) nosy
 m Guess(Read,TCheck) GFInput Force
 ----------------------------------------------------------------------

 -------
 Comment
 -------
 Symbolic Z-matrix:
 Charge = -1 Multiplicity = 2

 SCF Done:  E(UwB97XD) =  -323.504401727     A.U. after   17 cycles
 Normal termination of Gaussian 09 at Thu Oct 13 23:28:31 2022.
 Gaussian 09:  EM64L-G09RevA.02 11-Jun-2009

 ----------------------------------------------------------------------
 #p TD(full,nstates=1) wB97XD/GEN 6D Iop(6/7=3) Iop(9/40=14) scf(maxcyc
 =200,conver=8) nosym Guess(Read) Geom=AllCheck
 ----------------------------------------------------------------------

 -------
 No Z-matrix found on checkpoint file.
 Cartesian coordinates read from the checkpoint file:
 an.chk
 Charge = -1 Multiplicity = 2

                          Input orientation:
 ---------------------------------------------------------------------
 Center     Atomic      Atomic             Coordinates (Angstroms)
 Number     Number       Type             X           Y           Z
 ---------------------------------------------------------------------
      1          6           0       -4.957694    0.308934    0.872985
      2          6           0       -3.608305    1.076412    0.982950
      3          7           0       -5.154897   -0.731256    1.657660
      4          1           0       -5.757245    1.016269    0.901983
      5          1           0       -4.808602   -0.138330   -0.215205
      6          8           0       -6.234913   -0.987643    2.293958
      7          8           0       -4.116188   -1.545960    1.561972
      8          6           0       -3.481606    1.712735    2.445498
      9          1           0       -2.951933    0.363797    0.752199
     10          1           0       -3.604674    1.768329    0.192706
     11          1           0       -3.527169    0.955145    3.134447
     12          1           0       -2.803053    2.497333    2.445154
     13          1           0       -4.637022    2.131069    2.338246
 ---------------------------------------------------------------------

 SCF Done:  E(UwB97XD) =  -323.504401727     A.U. after    1 cycles

 Excitation energies and oscillator strengths:

 Excited state symmetry could not be determined.
 Excited State   1:  2.013-?Sym    0.8142142532 eV 1522.75 nm  f=0.0163294994  <S**2>=0.763
        1A ->   26A    -.78354338650748E-06
        1A ->   27A    -.26093117627067E-05
        1A ->   28A    0.21663625908049E-05
        1A ->   29A    -.90503786555034E-06
        1A ->   30A    0.77773419301005E-06
        1A ->   31A    0.11133432498468E-05
        1A ->   32A    0.37427482745884E-05
        1A ->   33A    -.73282719315730E-06
        1A ->   34A    -.56345432295458E-06
        1A ->   35A    0.17703237522391E-06
        1A ->   36A    0.59652634630240E-06
        1A ->   37A    0.31286660578508E-08
        1A ->   38A    -.80341749107467E-06
        1A ->   39A    -.49766320987482E-06
        1A ->   40A    -.47614200086651E-06
        1A ->   41A    0.36233388037172E-06
        1A ->   42A    0.10520711907487E-05
        1A ->   43A    0.11117394594347E-05
        1A ->   44A    0.55831745314304E-06
        1A ->   45A    0.32081345171393E-06
        1A ->   46A    0.14268919100570E-05
        1A ->   47A    0.29723717387916E-05
        1A ->   48A    -.11219291865127E-05
        1A ->   49A    0.15209123681506E-07
        1A ->   50A    0.40501086353296E-06
        1A ->   51A    -.81100928065404E-06
        1A ->   52A    -.10166893535632E-06
        1A ->   53A    -.18682093869302E-05
        1A ->   54A    0.83907097222549E-06
        1A ->   55A    0.97958826913162E-06
        1A ->   56A    -.48558759296138E-06
        1A ->   57A    0.39071245612398E-06
        1A ->   58A    -.23341150464273E-06
        1A ->   59A    -.42617089400003E-06
        1A ->   60A    0.17961037776852E-06
        1A ->   61A    0.63077239173321E-06
        1A ->   62A    0.73899704295415E-06
        1A ->   63A    -.74679650855122E-06
        1A ->   64A    0.48310738618177E-06
        1A ->   65A    0.36857887423351E-06
        1A ->   66A    -.23651446674194E-05
        1A ->   67A    -.34280842005048E-05
        1A ->   68A    -.32775008830171E-06
        1A ->   69A    0.37289222017318E-05
        1A ->   70A    0.52598259102634E-07
        1A ->   71A    0.24738619346969E-06
        1A ->   72A    0.48359261982754E-06
        1A ->   73A    0.72460837188945E-06
        1A ->   74A    -.22669537139362E-06
        1A ->   75A    0.52324112916893E-06
        1A ->   76A    -.82612536576591E-06
        1A ->   77A    -.16052394522402E-06
        1A ->   78A    -.38471691198802E-06
        1A ->   79A    0.43302969856799E-06
        1A ->   80A    0.36669695191916E-06
        1A ->   81A    0.18445400052523E-07
        1A ->   82A    0.52735494877451E-06
        1A ->   83A    0.81632434863022E-06
        1A ->   84A    0.23653716004769E-06
        1A ->   85A    0.69440653125591E-06
        1A ->   86A    -.35726488096502E-06
        1A ->   87A    -.16137753536664E-05
        1A ->   88A    0.13008707046450E-05
        1A ->   89A    -.21867403321618E-05
        1A ->   90A    0.18803405473495E-06
        1A ->   91A    0.16452853471373E-05
        1A ->   92A    0.36453470797161E-05
        1A ->   93A    0.47104760323832E-05
        1A ->   94A    0.15788734665897E-05
        1A ->   95A    -.19723703598992E-05
        1A ->   96A    -.11187348785790E-05
        1A ->   97A    -.99944731841479E-06
        1A ->   98A    -.17789924257087E-05
        1A ->   99A    0.31539029913952E-06
        1A ->  100A    0.39879621295511E-06
        1A ->  101A    -.78267293473548E-06
        1A ->  102A    0.54381607612859E-06
        1A ->  103A    0.10088971979537E-05
        1A ->  104A    0.24460928712067E-05
        1A ->  105A    -.37048798355691E-05
        1A ->  106A    0.35919896263452E-05
        1A ->  107A    -.46123958281709E-05
        1A ->  108A    0.64595296515939E-06
        1A ->  109A    0.57282283438644E-06
        1A ->  110A    -.26263202323879E-05
        1A ->  111A    0.18846368774409E-05
        1A ->  112A    -.23669857802222E-05
        1A ->  113A    -.90290815901962E-06
        1A ->  114A    0.19444485786385E-05
        1A ->  115A    -.13307711818026E-05
        1A ->  116A    0.54671256647563E-06
        1A ->  117A    -.30515386712489E-06
        1A ->  118A    0.39041562648068E-06
        1A ->  119A    0.23447458557307E-05
        1A ->  120A    -.73241294667457E-06
        1A ->  121A    0.91773625065030E-06
        1A ->  122A    0.81479581220634E-06
        1A ->  123A    -.64016397540890E-06
        1A ->  124A    -.23915995024334E-06
        1A ->  125A    0.16319165566646E-06
        1A ->  126A    0.23609145848918E-06
        1A ->  127A    -.26039359410318E-06
        1A ->  128A    0.11340495061621E-05
        1A ->  129A    -.78365505625382E-06
        1A ->  130A    0.10099576057681E-05
        1A ->  131A    -.12958862350459E-07
        1A ->  132A    0.18825076550829E-05
        1A ->  133A    0.56078546315277E-06
        1A ->  134A    0.17819723539310E-06
        1A ->  135A    0.88837731593324E-06
        1A ->  136A    -.41015618831645E-06
        1A ->  137A    -.11000683563502E-05
        1A ->  138A    -.71680351547828E-06
        1A ->  139A    0.31914585984309E-05
        1A ->  140A    0.10776343211395E-05
        1A ->  141A    0.40135224317281E-05
        1A ->  142A    0.58738597582101E-06
        1A ->  143A    0.39139833240695E-05
        1A ->  144A    0.92638675821815E-07
        1A ->  145A    0.33685858037774E-05
        1A ->  146A    -.30423194237202E-07
        1A ->  147A    -.22549329550657E-06
        1A ->  148A    -.16345031278136E-08
        1A ->  149A    -.90209573551555E-06
        1A ->  150A    -.21085839270951E-06
        1A ->  151A    0.55373234187001E-06
        1A ->  152A    -.28533781259238E-05
        1A ->  153A    -.33630198667196E-05
        1A ->  154A    -.59856726850448E-05
        1A ->  155A    0.24740316912252E-05
        1A ->  156A    0.65189310717830E-05
        1A ->  157A    0.53080734209588E-05
        2A ->   26A    -.66272798944822E-06
        2A ->   27A    -.21754970460414E-05
        2A ->   28A    0.23253510235496E-05
        2A ->   29A    -.84185257754792E-06
        2A ->   30A    0.63278275649640E-06
        2A ->   31A    -.60887238230326E-06
        2A ->   32A    0.33421899616721E-05
        2A ->   33A    -.67375197818046E-06
        2A ->   34A    -.38842119340014E-06
        2A ->   35A    0.10253870298656E-05
        2A ->   36A    0.10439421082099E-06
        2A ->   37A    0.17888220992143E-06
        2A ->   38A    0.60284532773556E-06
        2A ->   39A    -.57472215203517E-06
        2A ->   40A    -.46907447583439E-06
        2A ->   41A    -.13861194292623E-06
        2A ->   42A    0.18009399694637E-06
        2A ->   43A    0.42754837555077E-06
        2A ->   44A    0.32162559562262E-06
        2A ->   45A    -.12523982575227E-05
        2A ->   46A    0.57314662095723E-06
        2A ->   47A    -.12883128178080E-05
        2A ->   48A    -.97233761778361E-07
        2A ->   49A    0.10352911361642E-05
        2A ->   50A    0.28002836819407E-06
        2A ->   51A    -.20997957558798E-05
        2A ->   52A    0.45144806555374E-06
        2A ->   53A    -.14404897807720E-06
        2A ->   54A    -.97764388747908E-06
        2A ->   55A    0.16457685769106E-06
        2A ->   56A    0.59729321243870E-06
        2A ->   57A    -.34102798838976E-06
        2A ->   58A    -.10518645425833E-05
        2A ->   59A    -.56698977117441E-06
        2A ->   60A    -.26356388923286E-06
        2A ->   61A    -.50284745542610E-06
        2A ->   62A    0.39019978317808E-06
        2A ->   63A    0.39175371752559E-06
        2A ->   64A    -.10584310749890E-05
        2A ->   65A    0.29347034703551E-07
        2A ->   66A    -.67632556831978E-06
        2A ->   67A    -.87500509349162E-06
        2A ->   68A    -.25390844464501E-05
        2A ->   69A    -.24544501419110E-05
        2A ->   70A    0.14247929327657E-07
        2A ->   71A    -.84250637351839E-06
        2A ->   72A    -.48758766586938E-06
        2A ->   73A    -.10611893092237E-06
        2A ->   74A    0.40010040001166E-06
        2A ->   75A    -.66196452796737E-06
        2A ->   76A    -.27033117397629E-06
        2A ->   77A    0.36336322187408E-06
        2A ->   78A    -.24906960499106E-06
        2A ->   79A    -.28559191645922E-06
        2A ->   80A    -.24350546828375E-06
        2A ->   81A    0.36850516535089E-06
        2A ->   82A    -.21459995299142E-06
        2A ->   83A    0.83262808206240E-06
        2A ->   84A    -.26795856276452E-06
        2A ->   85A    0.90207743883345E-06
        2A ->   86A    -.88107394263091E-06
        2A ->   87A    -.16258769017549E-05
        2A ->   88A    -.10807434323974E-05
        2A ->   89A    -.23207248384384E-05
        2A ->   90A    -.14098327528212E-05
        2A ->   91A    0.40964501583688E-06
        2A ->   92A    0.88449711779287E-06
        2A ->   93A    0.11896998474704E-05
        2A ->   94A    -.46511266048861E-05
        2A ->   95A    -.13521248608188E-05
        2A ->   96A    0.14269432830955E-05
        2A ->   97A    0.18882345462197E-05
        2A ->   98A    0.19076519112597E-05
        2A ->   99A    0.77959102656922E-06
        2A ->  100A    -.25433113923611E-05
        2A ->  101A    -.22199119336371E-05
        2A ->  102A    0.23164800311908E-05
        2A ->  103A    0.25082112676950E-05
        2A ->  104A    0.44830922332398E-06
        2A ->  105A    0.13506208184187E-05
        2A ->  106A    0.14900319794364E-05
        2A ->  107A    0.13596967603306E-05
        2A ->  108A    -.33534717583829E-06
        2A ->  109A    0.63764674005992E-06
        2A ->  110A    0.29144578222976E-05
        2A ->  111A    -.45573914805214E-06
        2A ->  112A    0.16083526782778E-05
        2A ->  113A    -.67818071994236E-06
        2A ->  114A    0.57583069015918E-06
        2A ->  115A    -.14410222820735E-05
        2A ->  116A    0.21955641519265E-05
        2A ->  117A    -.18151282110913E-05
        2A ->  118A    0.27888650651768E-06
        2A ->  119A    -.50996287506440E-06
        2A ->  120A    -.65545204481817E-06
        2A ->  121A    -.29152045565588E-07
        2A ->  122A    0.11721403014013E-05
        2A ->  123A    -.62980425542844E-06
        2A ->  124A    -.36299002516159E-06
        2A ->  125A    0.62891044524803E-06
        2A ->  126A    -.56950369268624E-06
        2A ->  127A    0.10478583261893E-05
        2A ->  128A    0.65113489081379E-06
        2A ->  129A    0.10041234373147E-06
        2A ->  130A    0.43215574607305E-07
        2A ->  131A    0.90850516464343E-06
        2A ->  132A    -.80605453918867E-06
        2A ->  133A    -.68278682368831E-06
        2A ->  134A    -.14690738908573E-05
        2A ->  135A    -.48007389206822E-06
        2A ->  136A    -.32096772254567E-06
        2A ->  137A    0.70391492774698E-06
        2A ->  138A    0.46991011756592E-06
        2A ->  139A    -.26467275238885E-05
        2A ->  140A    -.20173287132175E-05
        2A ->  141A    0.39238895578663E-05
        2A ->  142A    -.13498443731776E-05
        2A ->  143A    0.24862024753728E-06
        2A ->  144A    0.58667649780718E-06
        2A ->  145A    -.16813704844155E-05
        2A ->  146A    -.98732538417189E-06
        2A ->  147A    0.54082224129893E-06
        2A ->  148A    -.18255322812396E-06
        2A ->  149A    -.33359357935916E-06
        2A ->  150A    -.50998677346309E-06
        2A ->  151A    0.10337158762542E-06
        2A ->  152A    -.17065024116326E-05
        2A ->  153A    -.32291423307461E-05
        2A ->  154A    -.62274836450586E-05
        2A ->  155A    0.57991850507394E-07
        2A ->  156A    -.52630671894996E-05
        2A ->  157A    -.15978119553180E-05
        3A ->   26A    0.19897413455254E-05
        3A ->   27A    0.51391990400155E-05
        3A ->   28A    -.49368518158168E-05
        3A ->   29A    0.18827655457991E-05
        3A ->   30A    -.25182094672213E-05
        3A ->   31A    -.18449690438440E-06
        3A ->   32A    -.84161675883953E-05
        3A ->   33A    0.10507438350724E-05
        3A ->   34A    -.24487717956055E-06
        3A ->   35A    -.34014324630143E-05
        3A ->   36A    -.64584348285738E-06
        3A ->   37A    -.21846042070066E-06
        3A ->   38A    0.22919895052757E-05
        3A ->   39A    0.25529405931611E-05
        3A ->   40A    -.20589524553257E-05
        3A ->   41A    -.76506707695417E-07
        3A ->   42A    -.94873606796911E-06
        3A ->   43A    0.63659407111774E-06
        3A ->   44A    -.18602772927573E-05
        3A ->   45A    0.38226328419004E-05
        3A ->   46A    -.47950172510910E-05
        3A ->   47A    -.18924897982332E-05
        3A ->   48A    0.53181602707457E-05
        3A ->   49A    -.75814260082351E-05
        3A ->   50A    -.88786281587925E-05
        3A ->   51A    0.13108984000036E-04
        3A ->   52A    0.87173388924798E-05
        3A ->   53A    0.17486615390038E-04
        3A ->   54A    0.35297443143136E-05
        3A ->   55A    -.51704917172254E-06
        3A ->   56A    0.55932038650455E-05
        3A ->   57A    -.21928125546391E-05
        3A ->   58A    -.75991076457718E-05
        3A ->   59A    -.19504238319140E-04
        3A ->   60A    0.50619946307958E-05
        3A ->   61A    0.89056653749711E-05
        3A ->   62A    -.41510723681018E-05
        3A ->   63A    0.15626486599139E-04
        3A ->   64A    0.42501068117354E-06
        3A ->   65A    0.72262200643538E-05
        3A ->   66A    -.29027215210603E-05
        3A ->   67A    0.50076877946253E-05
        3A ->   68A    -.51755335127819E-05
        3A ->   69A    0.31644222591668E-05
        3A ->   70A    -.17996746662862E-05
        3A ->   71A    0.36072642188715E-05
        3A ->   72A    0.66414513063646E-05
        3A ->   73A    0.17559025482517E-05
        3A ->   74A    -.49433307106170E-05
        3A ->   75A    0.69833212513401E-05
        3A ->   76A    0.13301036669829E-04
        3A ->   77A    -.35044528627695E-06
        3A ->   78A    0.29275946848300E-05
        3A ->   79A    -.19615277323198E-05
        3A ->   80A    -.96355092788795E-07
        3A ->   81A    -.88208302043975E-06
        3A ->   82A    -.20870700870456E-06
        3A ->   83A    -.51471759326332E-06
        3A ->   84A    -.31661140069434E-06
        3A ->   85A    -.30326014921756E-05
        3A ->   86A    -.40110176078303E-05
        3A ->   87A    -.31304337341810E-08
        3A ->   88A    -.21960899710234E-06
        3A ->   89A    -.26132074639328E-05
        3A ->   90A    -.13329646659532E-05
        3A ->   91A    -.27616671800299E-06
        3A ->   92A    0.47922665763235E-06
        3A ->   93A    -.96071245453902E-06
        3A ->   94A    -.84476196405130E-05
        3A ->   95A    -.36119699331938E-05
        3A ->   96A    -.53345047039132E-06
        3A ->   97A    -.89321994420121E-05
        3A ->   98A    -.46116351638246E-05
        3A ->   99A    0.13458974497634E-05
        3A ->  100A    -.47580609504803E-06
        3A ->  101A    0.97414693460620E-06
        3A ->  102A    0.31975536013001E-05
        3A ->  103A    0.36099891536945E-05
        3A ->  104A    0.36627629769468E-06
        3A ->  105A    -.24801616960928E-05
        3A ->  106A    0.41337053477672E-05
        3A ->  107A    -.54185160385877E-05
        3A ->  108A    0.29953885346350E-05
        3A ->  109A    0.30893439606569E-05
        3A ->  110A    0.23964495037361E-05
        3A ->  111A    0.11344985901502E-05
        3A ->  112A    0.66177289456116E-06
        3A ->  113A    -.46516310420653E-05
        3A ->  114A    0.75452681834525E-05
        3A ->  115A    0.40494952768979E-06
        3A ->  116A    0.22781233705256E-05
        3A ->  117A    -.18432609335972E-05
        3A ->  118A    -.44402153416393E-05
        3A ->  119A    -.90813707956946E-05
        3A ->  120A    0.27061122426178E-05
        3A ->  121A    -.15343040232815E-04
        3A ->  122A    -.54838696660727E-05
        3A ->  123A    0.12968076832833E-04
        3A ->  124A    -.18453276646418E-05
        3A ->  125A    -.10802754204219E-05
        3A ->  126A    -.76527110904982E-05
        3A ->  127A    -.17534412540728E-05
        3A ->  128A    -.85240393733606E-06
        3A ->  129A    -.28171687394368E-06
        3A ->  130A    0.83617511489173E-05
        3A ->  131A    -.86422487147976E-05
        3A ->  132A    0.43784745643877E-05
        3A ->  133A    -.26647972271105E-05
        3A ->  134A    -.80620648737114E-05
        3A ->  135A    -.11150311618335E-06
        3A ->  136A    -.13894778404012E-05
        3A ->  137A    -.89850858158816E-06
        3A ->  138A    -.36592789072471E-05
        3A ->  139A    -.21274897852691E-05
        3A ->  140A    -.22586791877616E-05
        3A ->  141A    0.34836848500011E-05
        3A ->  142A    0.48758321889756E-06
        3A ->  143A    0.31252983382457E-05
        3A ->  144A    -.91803501227619E-06
        3A ->  145A    0.24088227977352E-05
        3A ->  146A    -.24117580282197E-05
        3A ->  147A    -.13312690281255E-05
        3A ->  148A    -.65548262094224E-06
        3A ->  149A    -.20406351961714E-05
        3A ->  150A    0.11374496848462E-05
        3A ->  151A    0.38310868652183E-06
        3A ->  152A    0.31595971333658E-04
        3A ->  153A    -.13621208834094E-04
        3A ->  154A    0.11121285362945E-05
        3A ->  155A    0.97553649568813E-05
        3A ->  156A    0.19952345707848E-05
        3A ->  157A    -.22813853086713E-05
        4A ->   26A    -.11060323545671E-06
        4A ->   27A    0.41584044844331E-06
        4A ->   28A    -.63070017959757E-06
        4A ->   29A    0.20161905123555E-06
        4A ->   30A    0.11280484045240E-05
        4A ->   31A    0.63860848877092E-08
        4A ->   32A    -.55345668077965E-06
        4A ->   33A    0.14591601614564E-05
        4A ->   34A    0.49405860387881E-06
        4A ->   35A    -.25225756439189E-06
        4A ->   36A    -.87823377042248E-06
        4A ->   37A    -.29916744065210E-06
        4A ->   38A    -.35030085727908E-06
        4A ->   39A    0.11428646143158E-05
        4A ->   40A    0.78448473520011E-06
        4A ->   41A    -.67197884875523E-06
        4A ->   42A    0.10167866969218E-05
        4A ->   43A    0.10199548766809E-05
        4A ->   44A    -.12688789942556E-05
        4A ->   45A    -.25801706351763E-06
        4A ->   46A    -.43961601847019E-05
        4A ->   47A    -.10985891444995E-05
        4A ->   48A    0.18588280706893E-05
        4A ->   49A    -.55900716811761E-05
        4A ->   50A    -.96608074577652E-06
        4A ->   51A    0.13130692583934E-05
        4A ->   52A    0.57753632318156E-05
        4A ->   53A    0.61912913796023E-05
        4A ->   54A    0.27387184844388E-06
        4A ->   55A    0.30884358657211E-05
        4A ->   56A    0.39777401788163E-05
        4A ->   57A    -.61868820402743E-06
        4A ->   58A    -.50920986820318E-05
        4A ->   59A    -.82508315035854E-05
        4A ->   60A    0.11215551151082E-05
        4A ->   61A    0.39747640208045E-05
        4A ->   62A    0.24482602036262E-05
        4A ->   63A    0.72749244076843E-05
        4A ->   64A    -.17730729458161E-05
        4A ->   65A    -.51233181496205E-05
        4A ->   66A    -.46047906511627E-05
        4A ->   67A    0.97924954766664E-05
        4A ->   68A    0.33601553258286E-05
        4A ->   69A    0.74021781812588E-06
        4A ->   70A    -.60935405426339E-05
        4A ->   71A    0.85664011075795E-05
        4A ->   72A    0.94350939400866E-05
        4A ->   73A    0.42888344581577E-05
        4A ->   74A    -.14358005132652E-04
        4A ->   75A    0.16938184835099E-04
        4A ->   76A    0.29882363088304E-04
        4A ->   77A    -.10393140523532E-05
        4A ->   78A    0.61854956064491E-05
        4A ->   79A    -.43890051677589E-06
        4A ->   80A    0.14968427999059E-05
        4A ->   81A    -.21774486174161E-05
        4A ->   82A    -.24758543657526E-05
        4A ->   83A    0.64601403272305E-06
        4A ->   84A    0.45968843718929E-05
        4A ->   85A    -.21151087720507E-05
        4A ->   86A    0.20516269866232E-05
        4A ->   87A    0.28463232262008E-06
        4A ->   88A    0.32278548740133E-05
        4A ->   89A    -.23831311277551E-05
        4A ->   90A    -.29339135534366E-05
        4A ->   91A    -.79561786470066E-06
        4A ->   92A    -.10652670538352E-05
        4A ->   93A    -.19210889925987E-06
        4A ->   94A    0.72974391156506E-06
        4A ->   95A    -.17824360403222E-05
        4A ->   96A    0.16606620189966E-05
        4A ->   97A    0.31553417497433E-05
        4A ->   98A    0.10662413519501E-05
        4A ->   99A    0.33579363821932E-06
        4A ->  100A    0.49133360351617E-05
        4A ->  101A    0.20162796831945E-05
        4A ->  102A    -.19828205580248E-05
        4A ->  103A    0.34071889359000E-06
        4A ->  104A    0.11215586451585E-06
        4A ->  105A    -.11029851175425E-05
        4A ->  106A    -.66769468538271E-06
        4A ->  107A    0.29275860706572E-05
        4A ->  108A    -.98861652361602E-06
        4A ->  109A    -.19639405900395E-06
        4A ->  110A    -.56639877221294E-06
        4A ->  111A    -.50482800222858E-06
        4A ->  112A    0.61419802234300E-06
        4A ->  113A    -.21297163874812E-05
        4A ->  114A    0.20823952250031E-05
        4A ->  115A    0.43622550849041E-05
        4A ->  116A    -.42252216843789E-06
        4A ->  117A    -.17171195486535E-05
        4A ->  118A    -.77006909548590E-06
        4A ->  119A    0.94205043739939E-05
        4A ->  120A    -.21937350614481E-05
        4A ->  121A    -.54670844356908E-05
        4A ->  122A    0.46790530079527E-05
        4A ->  123A    0.35711157444977E-05
        4A ->  124A    -.19975878529382E-05
        4A ->  125A    0.27110951920484E-05
        4A ->  126A    0.61765471751201E-05
        4A ->  127A    0.29926576762948E-05
        4A ->  128A    0.52715412732829E-05
        4A ->  129A    -.13443091707860E-05
        4A ->  130A    -.57815093321737E-05
        4A ->  131A    0.10030143899788E-04
        4A ->  132A    -.77423111744213E-06
        4A ->  133A    -.22654219032973E-05
        4A ->  134A    0.58663837532098E-05
        4A ->  135A    0.22159315295663E-05
        4A ->  136A    0.25346022640264E-05
        4A ->  137A    0.23276519381758E-05
        4A ->  138A    0.29635984353965E-05
        4A ->  139A    -.19257637625229E-05
        4A ->  140A    -.10578709297251E-05
        4A ->  141A    0.10112812407503E-04
        4A ->  142A    0.71700156142722E-06
        4A ->  143A    -.54592205218139E-05
        4A ->  144A    -.97312457474499E-06
        4A ->  145A    0.67120311193319E-05
        4A ->  146A    -.69145112145092E-05
        4A ->  147A    -.11450666685086E-05
        4A ->  148A    -.14390004040443E-05
        4A ->  149A    -.33788841345901E-05
        4A ->  150A    -.17901274087025E-05
        4A ->  151A    0.16758483054886E-05
        4A ->  152A    -.86576161100626E-05
        4A ->  153A    0.12003995091884E-05
        4A ->  154A    0.35758683419070E-05
        4A ->  155A    0.55088222318712E-05
        4A ->  156A    0.34359638125056E-05
        4A ->  157A    -.79956783498797E-05
        5A ->   26A    -.61131153480971E-06
        5A ->   27A    -.16698706390598E-06
        5A ->   28A    0.71130943047807E-06
        5A ->   29A    -.19748007291908E-06
        5A ->   30A    0.88481498798880E-06
        5A ->   31A    -.70607542861707E-06
        5A ->   32A    0.49199415564689E-06
        5A ->   33A    0.32117528071221E-06
        5A ->   34A    0.25259633354900E-06
        5A ->   35A    -.13047640380444E-05
        5A ->   36A    -.47070679132031E-06
        5A ->   37A    0.36720260922059E-06
        5A ->   38A    -.16006137420684E-06
        5A ->   39A    -.95905700609814E-06
        5A ->   40A    0.75837671904204E-06
        5A ->   41A    0.10459570258911E-06
        5A ->   42A    -.19286349349291E-06
        5A ->   43A    0.49957764575083E-06
        5A ->   44A    -.10287973882337E-06
        5A ->   45A    -.35611197364054E-06
        5A ->   46A    -.37553440443746E-06
        5A ->   47A    0.10006215124780E-05
        5A ->   48A    0.23190530787187E-05
        5A ->   49A    0.76286317554090E-06
        5A ->   50A    -.67456845469498E-06
        5A ->   51A    -.29354451093672E-06
        5A ->   52A    -.21698991850355E-05
        5A ->   53A    0.46561248093727E-06
        5A ->   54A    -.22387815329246E-05
        5A ->   55A    0.48125810858964E-06
        5A ->   56A    -.20301712297939E-05
        5A ->   57A    0.20514719102409E-06
        5A ->   58A    0.10565362808936E-05
        5A ->   59A    -.14038799594218E-05
        5A ->   60A    -.20886353716688E-05
        5A ->   61A    0.88980180405683E-06
        5A ->   62A    0.24534855389397E-05
        5A ->   63A    0.71519233950712E-06
        5A ->   64A    -.13467570635384E-06
        5A ->   65A    -.10174526948244E-05
        5A ->   66A    0.34194965495933E-06
        5A ->   67A    -.66220398276640E-06
        5A ->   68A    -.10642799130014E-06
        5A ->   69A    0.72562544277528E-06
        5A ->   70A    0.10268941917860E-06
        5A ->   71A    0.41035484149209E-07
        5A ->   72A    0.28064117713931E-05
        5A ->   73A    -.58831558272853E-05
        5A ->   74A    -.49800208311016E-06
        5A ->   75A    -.19065812913397E-05
        5A ->   76A    0.17564964677251E-06
        5A ->   77A    0.17849023289333E-05
        5A ->   78A    0.46685267221808E-05
        5A ->   79A    -.78698509986079E-06
        5A ->   80A    0.43351538266292E-06
        5A ->   81A    -.86190328792428E-06
        5A ->   82A    -.51362455235128E-05
        5A ->   83A    -.25965004226568E-05
        5A ->   84A    -.18943229107820E-06
        5A ->   85A    0.14830815470011E-05
        5A ->   86A    0.10183164946772E-06
        5A ->   87A    -.82330482780456E-06
        5A ->   88A    0.14658427532288E-05
        5A ->   89A    -.11677301905413E-05
        5A ->   90A    0.45105310035782E-07
        5A ->   91A    -.13365008512782E-05
        5A ->   92A    0.74929197936327E-06
        5A ->   93A    -.12808770453808E-06

 Alpha  occ. eigenvalues --  -19.05999 -19.03930 -14.38684 -10.16292 -10.16175
 Alpha  occ. eigenvalues --  -10.14069  -1.03985  -0.87102  -0.75776  -0.68607
 Alpha  occ. eigenvalues --   -0.59588  -0.48143  -0.42982  -0.42156  -0.38526
 Alpha  occ. eigenvalues --   -0.36502  -0.35409  -0.31452  -0.29615  -0.25829
 Alpha  occ. eigenvalues --   -0.23938  -0.16846  -0.15819  -0.13085  -0.02370
 Alpha virt. eigenvalues --    0.07143   0.07407   0.07420   0.08028   0.15521
 Alpha virt. eigenvalues --    0.17012   0.17239   0.18203   0.20467   0.20927
 Alpha virt. eigenvalues --    0.23314   0.24855   0.25200   0.27054   0.27946

  Beta  occ. eigenvalues --  -19.05361 -19.03512 -14.37688 -10.16361 -10.16176
  Beta  occ. eigenvalues --  -10.13993  -1.02136  -0.85754  -0.75344  -0.67932
  Beta  occ. eigenvalues --   -0.59125  -0.47323  -0.42121  -0.41100  -0.37492
  Beta  occ. eigenvalues --   -0.35772  -0.33502  -0.30885  -0.29114  -0.25701
  Beta  occ. eigenvalues --   -0.22078  -0.15131  -0.12486  -0.12216
  Beta virt. eigenvalues --    0.08551   0.08860   0.08932   0.10290   0.16895
  Beta virt. eigenvalues --    0.18509   0.18745   0.19682   0.21625   0.22109
  Beta virt. eigenvalues --    0.23552   0.24113   0.25664   0.25961   0.27724

 Mulliken atomic charges:
              1
     1  C   -0.414634
     2  C   -0.078117
     3  N   -0.103812
     4  H    0.123785
     5  H    0.089903
     6  O   -0.323609
     7  O   -0.452833
     8  C   -0.593377
     9  H    0.194892
    10  H    0.114997
    11  H    0.200621
    12  H    0.130733
    13  H    0.111451
 Sum of Mulliken atomic charges =  -1.00000

 Dipole moment (field-independent basis, Debye):
    X=             24.4664    Y=              6.1158    Z=             -8.8667  Tot=             26.7325
 Quadrupole moment (field-independent basis, Debye-Ang):
   XX=           -173.8752   YY=            -53.7657   ZZ=            -62.1250
   XY=            -30.6664   XZ=             47.7167   YZ=             10.3987

 Normal termination of Gaussian 09 at Thu Oct 13 23:29:39 2022.
