 Gaussian 09, Revision A.02,

 ----------------------------------------------------------------------
 #p wB97XD/GEN 6D Iop(6/7=3) Iop(9/40=14) scf(maxcyc=200,conver=8) nosy
 m Guess(Read,TCheck) GFInput Force
 ----------------------------------------------------------------------

 -------
 Comment
 -------
 Symbolic Z-matrix:
 Charge = -1 Multiplicity = 2

 SCF Done:  E(UwB97XD) =  -323.505164506     A.U. after   17 cycles
 Normal termination of Gaussian 09 at Thu Oct 13 23:35:23 2022.
 Gaussian 09:  EM64L-G09RevA.02 11-Jun-2009

 ----------------------------------------------------------------------
 #p TD(full,nstates=1) wB97XD/GEN 6D Iop(6/7=3) Iop(9/40=14) scf(maxcyc
 =200,conver=8) nosym Guess(Read) Geom=AllCheck
 ----------------------------------------------------------------------

 -------
 No Z-matrix found on checkpoint file.
 Cartesian coordinates read from the checkpoint file:
 an.chk
 Charge = -1 Multiplicity = 2

                          Input orientation:
 ---------------------------------------------------------------------
 Center     Atomic      Atomic             Coordinates (Angstroms)
 Number     Number       Type             X           Y           Z
 ---------------------------------------------------------------------
      1          6           0       -4.958591    0.310099    0.869440
      2          6           0       -3.607397    1.076559    0.982612
      3          7           0       -5.154621   -0.730290    1.660212
      4          1           0       -5.752480    1.009518    0.906991
      5          1           0       -4.801235   -0.138463   -0.204218
      6          8           0       -6.234046   -0.988638    2.293942
      7          8           0       -4.117812   -1.545534    1.562068
      8          6           0       -3.480740    1.711305    2.445165
      9          1           0       -2.940299    0.367791    0.747249
     10          1           0       -3.608026    1.773130    0.186570
     11          1           0       -3.536082    0.955653    3.137001
     12          1           0       -2.810078    2.492847    2.448324
     13          1           0       -4.643782    2.130120    2.341083
 ---------------------------------------------------------------------

 SCF Done:  E(UwB97XD) =  -323.505164506     A.U. after    1 cycles

 Excitation energies and oscillator strengths:

 Excited state symmetry could not be determined.
 Excited State   1:  2.012-?Sym    0.7882914785 eV 1572.82 nm  f=0.0165090145  <S**2>=0.763
        1A ->   26A    -.77044614456293E-06
        1A ->   27A    -.26519573065940E-05
        1A ->   28A    0.21398065668676E-05
        1A ->   29A    -.88298302796179E-06
        1A ->   30A    0.76654611576037E-06
        1A ->   31A    0.10414109384885E-05
        1A ->   32A    0.37808661920687E-05
        1A ->   33A    -.73661684635290E-06
        1A ->   34A    -.56461099672381E-06
        1A ->   35A    0.15878793087148E-06
        1A ->   36A    0.59256660582569E-06
        1A ->   37A    -.17094611009266E-09
        1A ->   38A    -.81993447583860E-06
        1A ->   39A    -.50837947644320E-06
        1A ->   40A    -.48203988089838E-06
        1A ->   41A    0.38308056057513E-06
        1A ->   42A    0.10226361419898E-05
        1A ->   43A    0.11531736366788E-05
        1A ->   44A    0.54696197806744E-06
        1A ->   45A    0.33283438281641E-06
        1A ->   46A    0.13899060212091E-05
        1A ->   47A    0.30427293664131E-05
        1A ->   48A    -.11449777650417E-05
        1A ->   49A    -.10397158196024E-07
        1A ->   50A    0.46097307719307E-06
        1A ->   51A    -.76783470087441E-06
        1A ->   52A    0.36775370075536E-06
        1A ->   53A    -.18470588498191E-05
        1A ->   54A    0.97787781345037E-06
        1A ->   55A    0.10505530991450E-05
        1A ->   56A    -.35103161716542E-06
        1A ->   57A    0.39492220959191E-06
        1A ->   58A    -.24861464336637E-06
        1A ->   59A    -.41193536098213E-06
        1A ->   60A    0.21938434922648E-06
        1A ->   61A    0.66051312191247E-06
        1A ->   62A    0.68808283246792E-06
        1A ->   63A    -.78955920113050E-06
        1A ->   64A    0.50181751704141E-06
        1A ->   65A    0.34699243456671E-06
        1A ->   66A    -.22995237846347E-05
        1A ->   67A    -.35499096844657E-05
        1A ->   68A    -.24867620920249E-06
        1A ->   69A    0.37995541725527E-05
        1A ->   70A    0.73343634787678E-07
        1A ->   71A    -.24894846559767E-06
        1A ->   72A    0.52162214782586E-06
        1A ->   73A    0.70820755227324E-06
        1A ->   74A    -.23288793592626E-06
        1A ->   75A    0.50354326292116E-06
        1A ->   76A    -.84233694769440E-06
        1A ->   77A    -.13584274479622E-06
        1A ->   78A    -.36884590681100E-06
        1A ->   79A    0.57137881795049E-06
        1A ->   80A    0.21853461908510E-06
        1A ->   81A    -.79668937662336E-07
        1A ->   82A    0.49621150080479E-06
        1A ->   83A    0.87314776280192E-06
        1A ->   84A    0.15772874067998E-06
        1A ->   85A    0.72999481187065E-06
        1A ->   86A    -.19964390103509E-06
        1A ->   87A    -.16347881545386E-05
        1A ->   88A    0.13763921793115E-05
        1A ->   89A    -.21951311591595E-05
        1A ->   90A    0.10339727009802E-06
        1A ->   91A    0.17840563339845E-05
        1A ->   92A    0.37054371332500E-05
        1A ->   93A    0.47338698068441E-05
        1A ->   94A    0.16275079685169E-05
        1A ->   95A    -.20782814297387E-05
        1A ->   96A    -.11416128429637E-05
        1A ->   97A    -.98843412658841E-06
        1A ->   98A    -.18350029463847E-05
        1A ->   99A    0.33192005829006E-06
        1A ->  100A    0.35448819750777E-06
        1A ->  101A    -.84626125998675E-06
        1A ->  102A    0.58633394739512E-06
        1A ->  103A    0.96346366361054E-06
        1A ->  104A    0.23919145361500E-05
        1A ->  105A    -.38260843361652E-05
        1A ->  106A    0.37643551137166E-05
        1A ->  107A    -.46045801589067E-05
        1A ->  108A    0.63761920981421E-06
        1A ->  109A    0.76169146769830E-06
        1A ->  110A    -.23580856263671E-05
        1A ->  111A    0.21500708076165E-05
        1A ->  112A    -.24323983706405E-05
        1A ->  113A    -.66054599478104E-06
        1A ->  114A    0.22273518105222E-05
        1A ->  115A    -.12635914572613E-05
        1A ->  116A    0.52142258462965E-06
        1A ->  117A    -.46115731947915E-06
        1A ->  118A    0.76608956969933E-07
        1A ->  119A    0.23776136982234E-05
        1A ->  120A    -.72101771669011E-06
        1A ->  121A    0.82949347955882E-06
        1A ->  122A    0.86823082200416E-06
        1A ->  123A    -.71251254869839E-06
        1A ->  124A    -.20246561664139E-06
        1A ->  125A    0.18990672308244E-06
        1A ->  126A    0.30337928263586E-06
        1A ->  127A    -.37068993975726E-06
        1A ->  128A    0.10539528271146E-05
        1A ->  129A    -.85548204224556E-06
        1A ->  130A    0.10402115083629E-05
        1A ->  131A    0.28959382700872E-07
        1A ->  132A    0.18837755095753E-05
        1A ->  133A    0.56661045815301E-06
        1A ->  134A    0.33627407651423E-06
        1A ->  135A    0.87954489660394E-06
        1A ->  136A    -.44449629314074E-06
        1A ->  137A    -.11895062016107E-05
        1A ->  138A    -.58946420690130E-06
        1A ->  139A    0.31909264951921E-05
        1A ->  140A    0.11543410485186E-05
        1A ->  141A    0.35233416249226E-05
        1A ->  142A    0.23385681879589E-05
        1A ->  143A    0.39138143746958E-05
        1A ->  144A    0.21615425389513E-06
        1A ->  145A    0.33751479197135E-05
        1A ->  146A    -.15276537906880E-06
        1A ->  147A    -.29295827701591E-06
        1A ->  148A    -.13673733183393E-06
        1A ->  149A    -.87278803719708E-06
        1A ->  150A    -.28554360859227E-06
        1A ->  151A    0.59564337545065E-06
        1A ->  152A    -.28702047318480E-05
        1A ->  153A    -.34078786146967E-05
        1A ->  154A    -.60937410439888E-05
        1A ->  155A    0.26078841450827E-05
        1A ->  156A    0.65404204296393E-05
        1A ->  157A    0.54760006259870E-05
        2A ->   26A    -.65199973814587E-06
        2A ->   27A    -.22174788099847E-05
        2A ->   28A    0.23015781705231E-05
        2A ->   29A    -.82159423469238E-06
        2A ->   30A    0.61857855576567E-06
        2A ->   31A    -.68874420955187E-06
        2A ->   32A    0.33395328132101E-05
        2A ->   33A    -.67874610049016E-06
        2A ->   34A    -.38726900029892E-06
        2A ->   35A    0.10139505841379E-05
        2A ->   36A    0.11005163427929E-06
        2A ->   37A    0.17002138322056E-06
        2A ->   38A    0.60790680338750E-06
        2A ->   39A    -.58377423644559E-06
        2A ->   40A    -.46593221570939E-06
        2A ->   41A    -.15143888587294E-06
        2A ->   42A    0.17302490637356E-06
        2A ->   43A    0.43743346618026E-06
        2A ->   44A    0.35113769108171E-06
        2A ->   45A    -.12613246990014E-05
        2A ->   46A    0.59315649886903E-06
        2A ->   47A    -.12837277219420E-05
        2A ->   48A    -.95982638614308E-07
        2A ->   49A    0.10529876525152E-05
        2A ->   50A    0.13279455637292E-06
        2A ->   51A    -.18511080814716E-05
        2A ->   52A    0.11734335759265E-05
        2A ->   53A    -.12654778128217E-06
        2A ->   54A    -.10293557673826E-05
        2A ->   55A    0.18495481875620E-06
        2A ->   56A    0.64548702080134E-06
        2A ->   57A    -.23785823997470E-06
        2A ->   58A    -.11104674457429E-05
        2A ->   59A    -.55400628093582E-06
        2A ->   60A    -.26209070171255E-06
        2A ->   61A    -.51464012951525E-06
        2A ->   62A    0.39360777959863E-06
        2A ->   63A    0.35581130092659E-06
        2A ->   64A    -.10308119022335E-05
        2A ->   65A    0.15613913448126E-08
        2A ->   66A    -.68056842758599E-06
        2A ->   67A    -.95466200973273E-06
        2A ->   68A    -.25984298602806E-05
        2A ->   69A    -.24982611811672E-05
        2A ->   70A    -.16590117808595E-07
        2A ->   71A    0.87404561656931E-06
        2A ->   72A    -.46032497749176E-06
        2A ->   73A    -.85863587275773E-07
        2A ->   74A    0.39830942536911E-06
        2A ->   75A    -.66402944631686E-06
        2A ->   76A    -.24098373771862E-06
        2A ->   77A    0.34421099104568E-06
        2A ->   78A    -.25217214888080E-06
        2A ->   79A    -.33785745373206E-06
        2A ->   80A    -.13293672091468E-06
        2A ->   81A    0.40412853585538E-06
        2A ->   82A    -.19167390697250E-06
        2A ->   83A    0.82666958774317E-06
        2A ->   84A    -.32981834810645E-06
        2A ->   85A    0.10127353950580E-05
        2A ->   86A    -.66066545011520E-06
        2A ->   87A    -.17380083260736E-05
        2A ->   88A    -.10103993512144E-05
        2A ->   89A    -.23446090921497E-05
        2A ->   90A    -.13771936765674E-05
        2A ->   91A    0.53926542757402E-06
        2A ->   92A    0.87235829984477E-06
        2A ->   93A    0.13080439644422E-05
        2A ->   94A    -.48579856345576E-05
        2A ->   95A    -.10826193504974E-05
        2A ->   96A    0.12788133340760E-05
        2A ->   97A    0.18419494782149E-05
        2A ->   98A    0.20074351891108E-05
        2A ->   99A    0.79497993631709E-06
        2A ->  100A    -.28364735582655E-05
        2A ->  101A    -.19553391817864E-05
        2A ->  102A    0.24530895118343E-05
        2A ->  103A    0.25225329966281E-05
        2A ->  104A    0.42547565612376E-06
        2A ->  105A    0.13179864420497E-05
        2A ->  106A    0.14750389756617E-05
        2A ->  107A    0.14128270415045E-05
        2A ->  108A    -.46149596462972E-06
        2A ->  109A    0.43020589030040E-06
        2A ->  110A    0.28365205482187E-05
        2A ->  111A    -.70108285080012E-06
        2A ->  112A    0.18313095201586E-05
        2A ->  113A    -.52996214305735E-06
        2A ->  114A    0.74800466492820E-06
        2A ->  115A    -.15390287696798E-05
        2A ->  116A    0.21043523805623E-05
        2A ->  117A    -.18783682414890E-05
        2A ->  118A    0.14134812486766E-06
        2A ->  119A    -.54203709852294E-06
        2A ->  120A    -.75450063716073E-06
        2A ->  121A    -.70494098454962E-07
        2A ->  122A    0.11783283672790E-05
        2A ->  123A    -.65143912712344E-06
        2A ->  124A    -.27301853758480E-06
        2A ->  125A    0.69509267776987E-06
        2A ->  126A    -.53199444423530E-06
        2A ->  127A    0.10121866222574E-05
        2A ->  128A    0.80462827001630E-06
        2A ->  129A    0.15352378145440E-06
        2A ->  130A    0.20026775164061E-07
        2A ->  131A    0.92347174401898E-06
        2A ->  132A    -.80608316782517E-06
        2A ->  133A    -.46779218702647E-06
        2A ->  134A    -.16002138161146E-05
        2A ->  135A    -.39665892461133E-06
        2A ->  136A    -.30624691397819E-06
        2A ->  137A    0.72381676050282E-06
        2A ->  138A    0.37137288946924E-06
        2A ->  139A    -.26649674899326E-05
        2A ->  140A    -.19249058702189E-05
        2A ->  141A    0.42804563780585E-05
        2A ->  142A    -.24169843738120E-06
        2A ->  143A    0.38363658271613E-06
        2A ->  144A    0.66835694419548E-06
        2A ->  145A    -.17708065596211E-05
        2A ->  146A    -.86431917710265E-06
        2A ->  147A    0.52768908587433E-06
        2A ->  148A    -.29532969731076E-06
        2A ->  149A    -.29997546175598E-06
        2A ->  150A    -.54227966439423E-06
        2A ->  151A    0.10046577327792E-06
        2A ->  152A    -.17175582244131E-05
        2A ->  153A    -.33154886469954E-05
        2A ->  154A    -.63386288348878E-05
        2A ->  155A    0.14670967787756E-06
        2A ->  156A    -.53271791204864E-05
        2A ->  157A    -.17595707440630E-05
        3A ->   26A    0.19745012855953E-05
        3A ->   27A    0.52453558224900E-05
        3A ->   28A    -.48948819266229E-05
        3A ->   29A    0.18513134885144E-05
        3A ->   30A    -.25110195062260E-05
        3A ->   31A    0.11006481676424E-07
        3A ->   32A    -.84840494397529E-05
        3A ->   33A    0.10643596542244E-05
        3A ->   34A    -.25288104854469E-06
        3A ->   35A    -.33882648300007E-05
        3A ->   36A    -.65478166187787E-06
        3A ->   37A    -.22607970311350E-06
        3A ->   38A    0.23219348486865E-05
        3A ->   39A    0.25856053476338E-05
        3A ->   40A    -.21267564915633E-05
        3A ->   41A    -.61318708348530E-07
        3A ->   42A    -.97239690851980E-06
        3A ->   43A    0.66934741412582E-06
        3A ->   44A    -.18767891226891E-05
        3A ->   45A    0.37865972233898E-05
        3A ->   46A    -.47705332587333E-05
        3A ->   47A    -.19644160080637E-05
        3A ->   48A    0.54200022921465E-05
        3A ->   49A    -.74673881322957E-05
        3A ->   50A    -.94745632465239E-05
        3A ->   51A    0.15244423175774E-04
        3A ->   52A    0.20880831703585E-05
        3A ->   53A    0.18069187896153E-04
        3A ->   54A    0.29588991598371E-05
        3A ->   55A    -.82788801913318E-06
        3A ->   56A    0.60823573183208E-05
        3A ->   57A    -.16636919088362E-05
        3A ->   58A    -.86621337136549E-05
        3A ->   59A    -.18323829337695E-04
        3A ->   60A    0.64635742141895E-05
        3A ->   61A    0.92780056291052E-05
        3A ->   62A    -.50040805178296E-05
        3A ->   63A    0.16147833950308E-04
        3A ->   64A    -.85636427704995E-07
        3A ->   65A    0.75145552307229E-05
        3A ->   66A    -.32344978226961E-05
        3A ->   67A    0.48511674850065E-05
        3A ->   68A    -.53848099084058E-05
        3A ->   69A    0.33272538245012E-05
        3A ->   70A    -.17376512393805E-05
        3A ->   71A    -.40825801457187E-05
        3A ->   72A    0.66992345453621E-05
        3A ->   73A    0.12648615143115E-05
        3A ->   74A    -.49831366136057E-05
        3A ->   75A    0.71079272870938E-05
        3A ->   76A    0.13268158473477E-04
        3A ->   77A    -.47944384713521E-06
        3A ->   78A    0.26615996116670E-05
        3A ->   79A    -.19297604413851E-05
        3A ->   80A    0.73361444586871E-06
        3A ->   81A    -.12988163429465E-05
        3A ->   82A    -.40889771495497E-06
        3A ->   83A    -.44301235147943E-06
        3A ->   84A    -.41149540093819E-06
        3A ->   85A    -.24078342080386E-05
        3A ->   86A    -.44207315034784E-05
        3A ->   87A    -.12398785845262E-06
        3A ->   88A    -.34108513812093E-06
        3A ->   89A    -.26080569789042E-05
        3A ->   90A    -.12942853332938E-05
        3A ->   91A    -.20143601468479E-06
        3A ->   92A    0.38266097457784E-06
        3A ->   93A    -.70689935942622E-06
        3A ->   94A    -.87134282632171E-05
        3A ->   95A    -.32024440891371E-05
        3A ->   96A    -.74848246244250E-06
        3A ->   97A    -.89058808608988E-05
        3A ->   98A    -.48900896577017E-05
        3A ->   99A    0.14934898149966E-05
        3A ->  100A    -.32976034282550E-06
        3A ->  101A    0.10049114060594E-05
        3A ->  102A    0.32860078829195E-05
        3A ->  103A    0.35269698732458E-05
        3A ->  104A    0.18068503026687E-06
        3A ->  105A    -.26093969884488E-05
        3A ->  106A    0.42578636680037E-05
        3A ->  107A    -.54577012686506E-05
        3A ->  108A    0.30035611924718E-05
        3A ->  109A    0.28732763101861E-05
        3A ->  110A    0.26830371350780E-05
        3A ->  111A    0.86275470136965E-06
        3A ->  112A    0.11079921127256E-05
        3A ->  113A    -.32791143061380E-05
        3A ->  114A    0.82173132844860E-05
        3A ->  115A    0.63102921044076E-06
        3A ->  116A    0.22559823514351E-05
        3A ->  117A    -.16340127130790E-05
        3A ->  118A    -.43364322403456E-05
        3A ->  119A    -.10118748674077E-04
        3A ->  120A    0.24968573145675E-05
        3A ->  121A    -.14358524644278E-04
        3A ->  122A    -.65235371163469E-05
        3A ->  123A    0.13445905052899E-04
        3A ->  124A    -.29341635407485E-05
        3A ->  125A    -.15871532678894E-05
        3A ->  126A    -.81463154970909E-05
        3A ->  127A    -.16288778312228E-05
        3A ->  128A    -.93523915653053E-06
        3A ->  129A    -.43015636846115E-06
        3A ->  130A    0.85645524333389E-05
        3A ->  131A    -.81437335482992E-05
        3A ->  132A    0.41815942209920E-05
        3A ->  133A    -.13658417050934E-05
        3A ->  134A    -.85937414431680E-05
        3A ->  135A    0.44094557002061E-06
        3A ->  136A    -.16426580635874E-05
        3A ->  137A    -.12538322739585E-05
        3A ->  138A    -.37179068288637E-05
        3A ->  139A    -.19786551441544E-05
        3A ->  140A    -.22373994657114E-05
        3A ->  141A    0.32536671731629E-05
        3A ->  142A    0.18089126333000E-05
        3A ->  143A    0.30906838504433E-05
        3A ->  144A    -.78353319013910E-06
        3A ->  145A    0.21233217598977E-05
        3A ->  146A    -.23776315405503E-05
        3A ->  147A    -.16954497007168E-05
        3A ->  148A    -.87609690898232E-06
        3A ->  149A    -.18378024168744E-05
        3A ->  150A    0.93277138839051E-06
        3A ->  151A    0.50426049440746E-06
        3A ->  152A    0.31963918822129E-04
        3A ->  153A    -.13676752321329E-04
        3A ->  154A    0.13084174419999E-05
        3A ->  155A    0.98822981720496E-05
        3A ->  156A    0.22377149403448E-05
        3A ->  157A    -.25249300113999E-05
        4A ->   26A    -.61368164138539E-06
        4A ->   27A    -.17475405543006E-06
        4A ->   28A    0.73541949259565E-06
        4A ->   29A    -.19525132741913E-06
        4A ->   30A    0.87364610373383E-06
        4A ->   31A    -.74247524513125E-06
        4A ->   32A    0.49488551657626E-06
        4A ->   33A    0.31537754707446E-06
        4A ->   34A    0.26114060342389E-06
        4A ->   35A    -.13336668159054E-05
        4A ->   36A    -.46706518721628E-06
        4A ->   37A    0.38823729107989E-06
        4A ->   38A    -.15476158278560E-06
        4A ->   39A    -.99161861877986E-06
        4A ->   40A    0.76711213141040E-06
        4A ->   41A    0.87641982488766E-07
        4A ->   42A    -.23004415107009E-06
        4A ->   43A    0.48463275611717E-06
        4A ->   44A    -.70022457717650E-07
        4A ->   45A    -.37408641539845E-06
        4A ->   46A    -.41974958015376E-06
        4A ->   47A    0.10515657005427E-05
        4A ->   48A    0.22453368735248E-05
        4A ->   49A    0.86583614343476E-06
        4A ->   50A    -.67339584518116E-06
        4A ->   51A    -.91737895567515E-06
        4A ->   52A    -.20696799825205E-05
        4A ->   53A    0.62519818921715E-08
        4A ->   54A    -.22816048872289E-05
        4A ->   55A    0.74230960058371E-06
        4A ->   56A    -.21206587353540E-05
        4A ->   57A    0.12036504090717E-06
        4A ->   58A    0.10255743028822E-05
        4A ->   59A    -.16485733431347E-05
        4A ->   60A    -.20309051150712E-05
        4A ->   61A    0.94835124015082E-06
        4A ->   62A    0.24983754572565E-05
        4A ->   63A    0.62219303723437E-06
        4A ->   64A    -.70382367735689E-07
        4A ->   65A    -.93244449572698E-06
        4A ->   66A    0.46194149168638E-06
        4A ->   67A    -.79297285111815E-06
        4A ->   68A    -.12563580652391E-06
        4A ->   69A    0.72935838089531E-06
        4A ->   70A    0.75611657495565E-07
        4A ->   71A    -.18727826596239E-06
        4A ->   72A    0.24348134805115E-05
        4A ->   73A    -.62314302042886E-05
        4A ->   74A    -.24228563848723E-07
        4A ->   75A    -.20473081472420E-05
        4A ->   76A    -.98791553422817E-07
        4A ->   77A    0.18082674304693E-05
        4A ->   78A    0.45180044664344E-05
        4A ->   79A    -.94166036513814E-06
        4A ->   80A    0.91065459639032E-06
        4A ->   81A    -.53170819323542E-07
        4A ->   82A    -.51226008601650E-05
        4A ->   83A    -.30674587445168E-05
        4A ->   84A    -.11779567156591E-06
        4A ->   85A    0.16198202028992E-05
        4A ->   86A    0.30550829525875E-06
        4A ->   87A    -.83903491345692E-06
        4A ->   88A    0.14297779064022E-05
        4A ->   89A    -.11801508336355E-05
        4A ->   90A    0.60648548376137E-07
        4A ->   91A    -.13757221070021E-05
        4A ->   92A    0.80086724644471E-06
        4A ->   93A    -.10921285673207E-06
        4A ->   94A    0.21544123153981E-06
        4A ->   95A    0.14140758839930E-06
        4A ->   96A    0.49513335223271E-06
        4A ->   97A    -.11784684522624E-05
        4A ->   98A    0.74053527776007E-06
        4A ->   99A    -.38264834846358E-06
        4A ->  100A    -.54763303090598E-06
        4A ->  101A    -.97614992567121E-06
        4A ->  102A    0.75213401083078E-06
        4A ->  103A    -.64696706162126E-06
        4A ->  104A    0.87985584383832E-06
        4A ->  105A    0.40508508602346E-06
        4A ->  106A    -.67871381311252E-06
        4A ->  107A    -.26410255352299E-06
        4A ->  108A    0.20818528637652E-06
        4A ->  109A    0.52777358216060E-06
        4A ->  110A    -.43872574203871E-06
        4A ->  111A    -.17913230789577E-06
        4A ->  112A    -.81491456717049E-06
        4A ->  113A    -.14587626027087E-06
        4A ->  114A    -.48916066021506E-06
        4A ->  115A    0.64357923228201E-06
        4A ->  116A    0.40776376780550E-06
        4A ->  117A    0.42771823701946E-06
        4A ->  118A    0.51420122897962E-06
        4A ->  119A    -.33823873445653E-06
        4A ->  120A    -.16296988338185E-06
        4A ->  121A    0.80781887799463E-06
        4A ->  122A    0.66212413620573E-06
        4A ->  123A    0.56405288514160E-06
        4A ->  124A    -.87640240300415E-06
        4A ->  125A    0.24060153953869E-06
        4A ->  126A    -.65811065653783E-06
        4A ->  127A    0.36464301426654E-06
        4A ->  128A    -.46728738140961E-06
        4A ->  129A    -.28671835991662E-06
        4A ->  130A    -.37774072991632E-06
        4A ->  131A    -.97400793870426E-06
        4A ->  132A    -.15534925095427E-06
        4A ->  133A    0.70632154549868E-06
        4A ->  134A    -.30816400060981E-06
        4A ->  135A    0.14204857443754E-06
        4A ->  136A    0.62176242076149E-06
        4A ->  137A    -.99970944889405E-06
        4A ->  138A    -.92941715531209E-07
        4A ->  139A    0.58703093863561E-06
        4A ->  140A    0.31334981202855E-06
        4A ->  141A    0.16133284457353E-06
        4A ->  142A    -.59434304075336E-06
        4A ->  143A    -.23074143454061E-06
        4A ->  144A    -.42641760581231E-06
        4A ->  145A    0.88676932400491E-07
        4A ->  146A    0.46883896541232E-06
        4A ->  147A    0.80734818082894E-06
        4A ->  148A    -.50726363774576E-05
        4A ->  149A    0.16837881879737E-05
        4A ->  150A    0.15567729547242E-06
        4A ->  151A    -.33231365067475E-06
        4A ->  152A    -.35730859812259E-06
        4A ->  153A    -.12373879073206E-05
        4A ->  154A    0.48911220479385E-06
        4A ->  155A    -.45661884204226E-06
        4A ->  156A    -.11893399603199E-07
        4A ->  157A    -.20168083488692E-06
        5A ->   26A    -.21471559434133E-06
        5A ->   27A    0.40847701321640E-06
        5A ->   28A    -.54852142928730E-06
        5A ->   29A    0.18166332465581E-06
        5A ->   30A    0.12227716290444E-05
        5A ->   31A    -.48756566715029E-07
        5A ->   32A    -.46521467000816E-06
        5A ->   33A    0.15037923753290E-05
        5A ->   34A    0.52388971085026E-06
        5A ->   35A    -.25921618814645E-06
        5A ->   36A    -.89449434271361E-06
        5A ->   37A    -.23902331718049E-06
        5A ->   38A    -.37542288189474E-06
        5A ->   39A    0.11198520198049E-05
        5A ->   40A    0.79819504453786E-06
        5A ->   41A    -.61747466198581E-06
        5A ->   42A    0.10530916657833E-05
        5A ->   43A    0.11303802694029E-05
        5A ->   44A    -.12819849148670E-05
        5A ->   45A    -.31865641327385E-06
        5A ->   46A    -.43711636793424E-05
        5A ->   47A    -.11993401879365E-05
        5A ->   48A    0.19264052855172E-05
        5A ->   49A    -.57330964487542E-05
        5A ->   50A    -.15801831314312E-05
        5A ->   51A    0.30260128518613E-05
        5A ->   52A    0.43452698677026E-05
        5A ->   53A    0.67632377484938E-05
        5A ->   54A    0.79100488082440E-07
        5A ->   55A    0.29073039847204E-05
        5A ->   56A    0.47949025078805E-05
        5A ->   57A    -.18416690087242E-06
        5A ->   58A    -.56660684398943E-05
        5A ->   59A    -.78871920308482E-05
        5A ->   60A    0.15522927241895E-05
        5A ->   61A    0.42987314413891E-05
        5A ->   62A    0.22634803312627E-05
        5A ->   63A    0.73648386455464E-05
        5A ->   64A    -.17080962918731E-05
        5A ->   65A    -.52399683106419E-05
        5A ->   66A    -.47557341240992E-05
        5A ->   67A    0.98457992315286E-05
        5A ->   68A    0.32072717405478E-05
        5A ->   69A    0.84994779953460E-06
        5A ->   70A    -.59304197404414E-05
        5A ->   71A    -.96345844230659E-05
        5A ->   72A    0.95782812387448E-05
        5A ->   73A    0.34840510170374E-05
        5A ->   74A    -.14929859540818E-04
        5A ->   75A    0.17414307714704E-04
        5A ->   76A    0.29655567992644E-04
        5A ->   77A    -.10269437480086E-05
        5A ->   78A    0.57778459899495E-05
        5A ->   79A    -.21543817916168E-06
        5A ->   80A    0.16834719760541E-05
        5A ->   81A    -.17424201205089E-05
        5A ->   82A    -.30163191013901E-05
        5A ->   83A    0.53323968849821E-06
        5A ->   84A    0.46938887665059E-05
        5A ->   85A    -.21588866068418E-05
        5A ->   86A    0.17942840888048E-05
        5A ->   87A    0.49454966509972E-06
        5A ->   88A    0.31568525107618E-05
        5A ->   89A    -.23490785700561E-05
        5A ->   90A    -.29597438761481E-05
        5A ->   91A    -.78034550892142E-06
        5A ->   92A    -.10189637863895E-05
        5A ->   93A    -.17110037248624E-06

 Alpha  occ. eigenvalues --  -19.05957 -19.03860 -14.38622 -10.16180 -10.16127
 Alpha  occ. eigenvalues --  -10.14230  -1.03983  -0.87093  -0.75746  -0.68562
 Alpha  occ. eigenvalues --   -0.59531  -0.48203  -0.43045  -0.42123  -0.38537
 Alpha  occ. eigenvalues --   -0.36485  -0.35419  -0.31353  -0.29707  -0.25859
 Alpha  occ. eigenvalues --   -0.24009  -0.16809  -0.15776  -0.13042  -0.02272
 Alpha virt. eigenvalues --    0.07138   0.07403   0.07416   0.08026   0.15514
 Alpha virt. eigenvalues --    0.17006   0.17226   0.18206   0.20458   0.20924
 Alpha virt. eigenvalues --    0.23320   0.24822   0.25204   0.27026   0.27931

  Beta  occ. eigenvalues --  -19.05319 -19.03443 -14.37622 -10.16195 -10.16181
  Beta  occ. eigenvalues --  -10.14154  -1.02132  -0.85746  -0.75317  -0.67905
  Beta  occ. eigenvalues --   -0.59055  -0.47370  -0.42124  -0.41169  -0.37506
  Beta  occ. eigenvalues --   -0.35750  -0.33464  -0.30803  -0.29186  -0.25741
  Beta  occ. eigenvalues --   -0.22164  -0.15089  -0.12447  -0.12180
  Beta virt. eigenvalues --    0.08584   0.08904   0.08970   0.10359   0.16910
  Beta virt. eigenvalues --    0.18538   0.18766   0.19710   0.21653   0.22127
  Beta virt. eigenvalues --    0.23609   0.24161   0.25653   0.25975   0.27696

 Mulliken atomic charges:
              1
     1  C   -0.405644
     2  C   -0.081103
     3  N   -0.110444
     4  H    0.124419
     5  H    0.093586
     6  O   -0.322895
     7  O   -0.454183
     8  C   -0.593909
     9  H    0.193980
    10  H    0.113980
    11  H    0.201179
    12  H    0.131453
    13  H    0.109579
 Sum of Mulliken atomic charges =  -1.00000

 Dipole moment (field-independent basis, Debye):
    X=             24.4682    Y=              6.1300    Z=             -8.8787  Tot=             26.7414
 Quadrupole moment (field-independent basis, Debye-Ang):
   XX=           -173.9170   YY=            -53.8665   ZZ=            -62.1373
   XY=            -30.7393   XZ=             47.7909   YZ=             10.4626

 Normal termination of Gaussian 09 at Thu Oct 13 23:36:40 2022.
