 Gaussian 09, Revision A.02,
 Gaussian 09:  EM64L-G09RevA.02 11-Jun-2009

 ----------------------------------------------------------------------
 #p wB97XD/GEN 6D Iop(6/7=3) Iop(9/40=14) scf(maxcyc=200,conver=8) nosy
 m Guess(Read,TCheck) GFInput
 ----------------------------------------------------------------------

 -------
 Comment
 -------
 Symbolic Z-matrix:
 Charge =  0 Multiplicity = 1

                          Input orientation:
 ---------------------------------------------------------------------
 Center     Atomic      Atomic             Coordinates (Angstroms)
 Number     Number       Type             X           Y           Z
 ---------------------------------------------------------------------
      1          6           0       -4.958591    0.310099    0.869440
      2          6           0       -3.607397    1.076559    0.982612
      3          7           0       -5.154621   -0.730290    1.660212
      4          1           0       -5.752480    1.009518    0.906991
      5          1           0       -4.801235   -0.138463   -0.204218
      6          8           0       -6.234046   -0.988638    2.293942
      7          8           0       -4.117812   -1.545534    1.562068
      8          6           0       -3.480740    1.711305    2.445165
      9          1           0       -2.940299    0.367791    0.747249
     10          1           0       -3.608026    1.773130    0.186570
     11          1           0       -3.536082    0.955653    3.137001
     12          1           0       -2.810078    2.492847    2.448324
     13          1           0       -4.643782    2.130120    2.341083
 ---------------------------------------------------------------------

 SCF Done:  E(RwB97XD) =  -323.470807914     A.U. after   12 cycles

 Alpha  occ. eigenvalues --  -19.34238 -19.31723 -14.70525 -10.37150 -10.32429
 Alpha  occ. eigenvalues --  -10.31805  -1.30902  -1.13806  -0.98196  -0.87847
 Alpha  occ. eigenvalues --   -0.77486  -0.69663  -0.64850  -0.64789  -0.61219
 Alpha  occ. eigenvalues --   -0.57092  -0.54429  -0.49970  -0.48918  -0.43560
 Alpha  occ. eigenvalues --   -0.42745  -0.41082  -0.39872  -0.38534
 Alpha virt. eigenvalues --   -0.04789   0.00786   0.01380   0.01421   0.01685
 Alpha virt. eigenvalues --    0.04815   0.06384   0.06596   0.07145   0.09732
 Alpha virt. eigenvalues --    0.09958   0.10706   0.11969   0.13064   0.14183

 Mulliken atomic charges:
              1
     1  C   -0.303286
     2  C   -0.239070
     3  N   -0.076493
     4  H    0.188776
     5  H    0.211499
     6  O   -0.011503
     7  O   -0.142957
     8  C   -0.488721
     9  H    0.198921
    10  H    0.170201
    11  H    0.198247
    12  H    0.181216
    13  H    0.113170
 Sum of Mulliken atomic charges =  -0.00000

 Dipole moment (field-independent basis, Debye):
    X=              0.9053    Y=              3.5158    Z=             -2.1994  Tot=              4.2447
 Quadrupole moment (field-independent basis, Debye-Ang):
   XX=            -47.2897   YY=            -40.3093   ZZ=            -41.9805
   XY=            -15.5239   XZ=             13.4777   YZ=              6.0970

 Normal termination of Gaussian 09 at Thu Oct 13 23:37:06 2022.
