 Gaussian 09, Revision A.02,
 Gaussian 09:  EM64L-G09RevA.02 11-Jun-2009

 ----------------------------------------------------------------------
 #p wB97XD/GEN 6D Iop(6/7=3) Iop(9/40=14) scf(maxcyc=200,conver=8) nosy
 m Guess(Read,TCheck) GFInput
 ----------------------------------------------------------------------

 -------
 Comment
 -------
 Symbolic Z-matrix:
 Charge =  0 Multiplicity = 1

                          Input orientation:
 ---------------------------------------------------------------------
 Center     Atomic      Atomic             Coordinates (Angstroms)
 Number     Number       Type             X           Y           Z
 ---------------------------------------------------------------------
      1          6           0       -4.957694    0.308934    0.872985
      2          6           0       -3.608305    1.076412    0.982950
      3          7           0       -5.154897   -0.731256    1.657660
      4          1           0       -5.757245    1.016269    0.901983
      5          1           0       -4.808602   -0.138330   -0.215205
      6          8           0       -6.234913   -0.987643    2.293958
      7          8           0       -4.116188   -1.545960    1.561972
      8          6           0       -3.481606    1.712735    2.445498
      9          1           0       -2.951933    0.363797    0.752199
     10          1           0       -3.604674    1.768329    0.192706
     11          1           0       -3.527169    0.955145    3.134447
     12          1           0       -2.803053    2.497333    2.445154
     13          1           0       -4.637022    2.131069    2.338246
 ---------------------------------------------------------------------

 SCF Done:  E(RwB97XD) =  -323.469130178     A.U. after   12 cycles

 Alpha  occ. eigenvalues --  -19.34244 -19.31758 -14.70542 -10.37311 -10.32282
 Alpha  occ. eigenvalues --  -10.31793  -1.30867  -1.13778  -0.98243  -0.87940
 Alpha  occ. eigenvalues --   -0.77483  -0.69622  -0.64843  -0.64760  -0.61218
 Alpha  occ. eigenvalues --   -0.57135  -0.54276  -0.49822  -0.48998  -0.43503
 Alpha  occ. eigenvalues --   -0.42807  -0.41093  -0.39878  -0.38545
 Alpha virt. eigenvalues --   -0.04871   0.00784   0.01381   0.01421   0.01685
 Alpha virt. eigenvalues --    0.04804   0.06396   0.06600   0.07143   0.09736
 Alpha virt. eigenvalues --    0.09955   0.10678   0.11994   0.13049   0.14127

 Mulliken atomic charges:
              1
     1  C   -0.307012
     2  C   -0.238715
     3  N   -0.073875
     4  H    0.189160
     5  H    0.210052
     6  O   -0.012701
     7  O   -0.141567
     8  C   -0.488674
     9  H    0.198964
    10  H    0.170806
    11  H    0.197684
    12  H    0.180896
    13  H    0.114981
 Sum of Mulliken atomic charges =   0.00000

 Dipole moment (field-independent basis, Debye):
    X=              0.9025    Y=              3.5183    Z=             -2.2111  Tot=              4.2523
 Quadrupole moment (field-independent basis, Debye-Ang):
   XX=            -47.2845   YY=            -40.2783   ZZ=            -42.0260
   XY=            -15.5441   XZ=             13.5431   YZ=              6.0737

 Normal termination of Gaussian 09 at Thu Oct 13 23:30:03 2022.
