 Gaussian 09, Revision A.02,

 ----------------------------------------------------------------------
 #p wB97XD/GEN 6D Iop(6/7=3) Iop(9/40=14) scf(maxcyc=200,conver=8) nosy
 m Guess(Read,TCheck) GFInput
 ----------------------------------------------------------------------

 -------
 Comment
 -------
 Symbolic Z-matrix:
 Charge = -1 Multiplicity = 1

 SCF Done:  E(RwB97XD) =  -301.755002538     A.U. after   14 cycles
 Normal termination of Gaussian 09 at Fri May 26 02:57:56 2023.
 Gaussian 09:  EM64L-G09RevA.02 11-Jun-2009

 ----------------------------------------------------------------------
 #p TD(full,nstates=1,root=1) Force wB97XD/GEN 6D Iop(6/7=3) Iop(9/40=1
 4) scf(maxcyc=200,conver=8) nosym Guess(Read) Geom=AllCheck
 ----------------------------------------------------------------------

 Comment
 -------
 Z-Matrix taken from the checkpoint file:
 an.chk
 Charge = -1 Multiplicity = 1

                          Input orientation:
 ---------------------------------------------------------------------
 Center     Atomic      Atomic             Coordinates (Angstroms)
 Number     Number       Type             X           Y           Z
 ---------------------------------------------------------------------
      1          7           0        0.951626   -0.929187   -0.001118
      2          6           0       -0.241188   -0.114338    0.054647
      3          6           0        0.059829    1.262077   -0.000726
      4          6           0        1.357320    1.360496    0.064445
      5          6           0        1.942177   -0.012306   -0.055372
      6          6           0       -1.571064   -0.616094   -0.018299
      7          7           0       -2.670272   -1.024247   -0.017329
      8          1           0       -0.551251    2.236738    0.013852
      9          1           0        2.426613    1.966127    0.012733
     10          1           0        3.139415   -0.385453   -0.302741
 ---------------------------------------------------------------------

 SCF Done:  E(RwB97XD) =  -301.755002538     A.U. after    1 cycles

 Excitation energies and oscillator strengths:

 Excited state symmetry could not be determined.
 Excited State   1:      Singlet-?Sym    2.9802885188 eV  416.01 nm  f=0.0008399959  <S**2>=0.000
         1 ->   25     0.49238709037977E-08
         1 ->   26     0.53060906523204E-08
         1 ->   27     -.12452913634833E-07
         1 ->   28     0.90442320118518E-07
         1 ->   29     0.10970915576380E-06
         1 ->   30     -.53343095294118E-06
         1 ->   31     0.32035227940995E-06
         1 ->   32     -.12350849685614E-05
         1 ->   33     -.21880479959244E-07
         1 ->   34     -.20957835360548E-07
         1 ->   35     -.30665401428659E-07
         1 ->   36     0.71099427788705E-07
         1 ->   37     0.18523187591197E-06
         1 ->   38     -.67783550731746E-06
         1 ->   39     -.11857609333923E-06
         1 ->   40     0.11901282952770E-06
         1 ->   41     0.44308377910018E-07
         1 ->   42     -.47028060653016E-08
         1 ->   43     -.20528077311586E-07
         1 ->   44     -.42921019084161E-07
         1 ->   45     0.18714082631720E-06
         1 ->   46     -.11778073336285E-05
         1 ->   47     -.47975221469587E-07
         1 ->   48     -.22207682107967E-06
         1 ->   49     -.10509845669747E-08
         1 ->   50     0.64706040602806E-08
         1 ->   51     -.44571965518266E-07
         1 ->   52     -.62618552670777E-07
         1 ->   53     0.17939494654237E-06
         1 ->   54     0.45396015959142E-06
         1 ->   55     -.30166924563483E-06
         1 ->   56     0.89331900354588E-07
         1 ->   57     -.11657094552766E-06
         1 ->   58     -.14712421246820E-06
         1 ->   59     -.11288788644818E-06
         1 ->   60     0.23985363057746E-06
         1 ->   61     0.51559334757367E-07
         1 ->   62     -.16596974404402E-06
         1 ->   63     0.13580060551962E-06
         1 ->   64     0.41767091248042E-06
         1 ->   65     0.98406855664723E-07
         1 ->   66     -.52188728175107E-06
         1 ->   67     -.26989442798792E-07
         1 ->   68     -.47761381144505E-06
         1 ->   69     0.19938105739338E-06
         1 ->   70     -.16406392623564E-07
         1 ->   71     0.34245521954651E-06
         1 ->   72     -.95321077256490E-06
         1 ->   73     -.70164010449061E-06
         1 ->   74     -.32742547519022E-06
         1 ->   75     -.39159046891344E-06
         1 ->   76     -.14628051004608E-06
         1 ->   77     -.42667714735439E-06
         1 ->   78     -.35243701985785E-06
         1 ->   79     -.79736530736097E-07
         1 ->   80     -.94029710145375E-07
         1 ->   81     -.41344243587349E-07
         1 ->   82     0.27200665290404E-07
         1 ->   83     0.35966167158880E-07
         1 ->   84     0.70916113888589E-07
         1 ->   85     -.47308683825310E-07
         1 ->   86     -.36657270720862E-07
         1 ->   87     -.50385908508765E-08
         1 ->   88     0.36452764238988E-08
         1 ->   89     -.81379944690316E-07
         1 ->   90     0.15002963498942E-06
         1 ->   91     -.17874396336043E-06
         1 ->   92     0.42523645594896E-07
         1 ->   93     -.25974823284493E-07
         1 ->   94     0.86264986526796E-07
         1 ->   95     0.12201992661789E-07
         1 ->   96     -.99202064974857E-07
         1 ->   97     0.30950710143595E-06
         1 ->   98     0.36701176330453E-07
         1 ->   99     0.27436367614344E-06
         1 ->  100     -.19385617994029E-07
         1 ->  101     -.99117194659490E-07
         1 ->  102     -.10552451153498E-06
         1 ->  103     -.16283377594964E-06
         1 ->  104     0.11316862461974E-06
         1 ->  105     -.50592348526770E-06
         1 ->  106     0.14253488029053E-06
         1 ->  107     0.44804902418378E-06
         1 ->  108     -.33467571864441E-06
         1 ->  109     0.16788508276718E-05
         1 ->  110     0.50444235562613E-06
         1 ->  111     -.12058710091128E-05
         1 ->  112     -.90491054077144E-06
         1 ->  113     -.20976150891777E-06
         1 ->  114     0.14107484775330E-06
         1 ->  115     0.62186021967696E-07
         1 ->  116     -.42929252867424E-07
         1 ->  117     -.16531034099735E-07
         1 ->  118     -.83034961293421E-07
         1 ->  119     -.66118072470891E-07
         1 ->  120     0.43522545456530E-06
         1 ->  121     -.60476500457345E-07
         1 ->  122     0.14425676120422E-06
         1 ->  123     -.52666929977989E-07
         1 ->  124     0.22929374041416E-06
         1 ->  125     0.12863207263576E-06
         1 ->  126     -.41059729523943E-07
         1 ->  127     -.27157361860995E-07
         1 ->  128     -.41181900091189E-06
         1 ->  129     0.78610684141194E-07
         1 ->  130     -.88759464416256E-07
         1 ->  131     0.16635052794518E-06
         1 ->  132     -.41610515766517E-07
         1 ->  133     0.51753939293687E-07
         1 ->  134     -.12215190026738E-06
         1 ->  135     0.38685586454742E-06
         1 ->  136     -.52700595309706E-06
         1 ->  137     -.23806542526226E-06
         1 ->  138     0.20299829923856E-06
         1 ->  139     0.12250176503699E-06
         1 ->  140     0.16201311922621E-08
         1 ->  141     -.98577329143474E-07
         1 ->  142     0.10197587110421E-06
         1 ->  143     0.84710221313789E-07
         1 ->  144     0.71553313819366E-07
         1 ->  145     0.69471744606851E-07
         1 ->  146     -.32422779146045E-07
         1 ->  147     -.29195208705503E-07
         1 ->  148     0.14031337986139E-06
         1 ->  149     -.36662735215905E-07
         1 ->  150     -.38410652660566E-07
         1 ->  151     0.88542411789739E-08
         1 ->  152     0.39661061029775E-09
         1 ->  153     -.30713497214715E-07
         1 ->  154     0.90241141105306E-07
         1 ->  155     0.69840429553139E-07
         1 ->  156     0.89496305315307E-07
         1 ->  157     -.33521891083104E-06
         1 ->  158     -.76520813454247E-07
         1 ->  159     0.82108366500340E-07
         1 ->  160     -.76603275115712E-07
         1 ->  162     -.63663969793213E-08
         1 ->  163     -.86108741553875E-08
         1 ->  164     -.20405077216601E-06
         1 ->  165     -.63189330038765E-06
         1 ->  166     -.49261090306182E-09
         1 ->  167     -.11494345746540E-06
         1 ->  168     0.60727429828307E-06
         1 ->  169     -.23580440573285E-07
         1 ->  170     -.30442719786334E-06
         1 ->  171     0.17631043563636E-06
         1 ->  172     -.75480691888585E-07
         1 ->  173     0.42678122555863E-07
         1 ->  174     -.44605807872226E-07
         1 ->  175     0.37645409118444E-07
         1 ->  176     -.69757503758421E-07
         1 ->  177     -.10404740029094E-06
         1 ->  178     -.27366999727107E-07
         1 ->  179     -.83643532069499E-07
         1 ->  180     -.21725679603664E-07
         1 ->  181     0.23983968519525E-06
         1 ->  182     0.10799664330364E-05
         1 ->  183     0.43472609008931E-05
         1 ->  184     -.29837070469187E-05
         1 ->  185     -.25947465338409E-06
         1 ->  186     0.36976563601935E-06
         1 ->  187     -.30198452889300E-06
         1 ->  188     0.62382155225308E-07
         1 ->  189     -.27877085142003E-06
         1 ->  190     -.30928690795950E-07
         1 ->  191     -.27202598113889E-08
         1 ->  192     0.36836361632261E-07
         1 ->  193     0.31988587190278E-07
         1 ->  200     0.15041232898982E-07
         2 ->   25     0.50628134782394E-07
         2 ->   26     -.38489903946419E-07
         2 ->   27     -.62506783766019E-07
         2 ->   28     0.10930721841437E-06
         2 ->   29     0.32543190283044E-07
         2 ->   30     0.17917757015404E-07
         2 ->   31     -.16720997301105E-06
         2 ->   32     0.33782777831847E-06
         2 ->   33     -.90684126738019E-07
         2 ->   34     0.26581977270365E-07
         2 ->   35     -.91456501945631E-07
         2 ->   36     -.28001414653912E-08
         2 ->   37     0.65145294327095E-08
         2 ->   38     0.15073912942732E-06
         2 ->   39     0.80733055488877E-07
         2 ->   40     -.95883597877799E-07
         2 ->   41     -.58492512678103E-07
         2 ->   42     0.19428359947146E-07
         2 ->   43     0.60682060036786E-07
         2 ->   44     -.10236666392766E-07
         2 ->   45     -.10369689931128E-06
         2 ->   46     0.41511102630569E-06
         2 ->   47     0.22666252583121E-06
         2 ->   48     -.49711823593132E-07
         2 ->   49     -.50159644467322E-07
         2 ->   50     0.15317561076080E-06
         2 ->   51     -.87610261714832E-07
         2 ->   52     0.57048664940971E-07
         2 ->   53     0.28319554172244E-07
         2 ->   54     -.39671689468375E-07
         2 ->   55     0.47524597886950E-07
         2 ->   56     0.41666349448742E-07
         2 ->   57     -.45586681304720E-07
         2 ->   58     -.14140763011315E-06
         2 ->   59     0.84430597820523E-08
         2 ->   60     -.49896678610756E-07
         2 ->   61     -.36932872848393E-07
         2 ->   62     -.75845142765745E-07
         2 ->   63     0.20690873582433E-06
         2 ->   64     0.19626683531857E-07
         2 ->   65     -.78291694522353E-07
         2 ->   66     -.13015291889643E-06
         2 ->   67     0.98807609753046E-07
         2 ->   68     -.12955002112701E-06
         2 ->   69     -.98304797558414E-07
         2 ->   70     0.13461558250253E-06
         2 ->   71     -.21593724113001E-06
         2 ->   72     -.78577484348707E-07
         2 ->   73     -.39500886494163E-07
         2 ->   74     -.13041205771048E-06
         2 ->   75     -.10463591023789E-06
         2 ->   76     -.88545375953775E-07
         2 ->   77     -.43655140240332E-07
         2 ->   78     -.11538673497153E-06
         2 ->   79     0.21562052212876E-07
         2 ->   80     0.40258066887369E-08
         2 ->   81     -.56725081496306E-07
         2 ->   82     -.12450477714828E-07
         2 ->   83     -.77552368278738E-07
         2 ->   84     0.12524954273817E-06
         2 ->   85     -.19215704276103E-07
         2 ->   86     0.84385607988304E-07
         2 ->   87     0.21663053956514E-07
         2 ->   88     0.41215776038897E-07
         2 ->   89     -.57350651955885E-08
         2 ->   90     0.75853698279457E-07
         2 ->   91     -.24258717072253E-07
         2 ->   92     0.55471307135271E-07
         2 ->   93     0.14325163221399E-06
         2 ->   94     0.54464120108925E-07
         2 ->   95     -.55919494065114E-07
         2 ->   96     -.27719358925680E-07
         2 ->   97     0.78580855769721E-07
         2 ->   98     0.20690411613400E-07
         2 ->   99     -.14346862973286E-07
         2 ->  100     0.28042298357951E-07
         2 ->  101     -.33021108205153E-07
         2 ->  102     -.13615385991843E-07
         2 ->  103     -.80625507051612E-07
         2 ->  104     -.35200734954376E-07
         2 ->  105     0.31687103233415E-07
         2 ->  106     -.10964076102263E-06
         2 ->  107     0.46778783643387E-07
         2 ->  108     0.18402766615325E-06
         2 ->  109     -.32341506781982E-06
         2 ->  110     0.60112529847839E-06
         2 ->  111     -.61624387924609E-07
         2 ->  112     -.11043067066349E-06
         2 ->  113     -.19101872303523E-06
         2 ->  114     0.79260243329637E-07
         2 ->  115     0.81013310535959E-07
         2 ->  116     -.41566521803008E-07
         2 ->  117     0.42597167142318E-07
         2 ->  118     0.96218181070474E-07
         2 ->  119     0.17011638397812E-07
         2 ->  120     0.40201156566277E-08
         2 ->  121     0.77741780779964E-08
         2 ->  122     0.24935987701500E-07
         2 ->  123     0.99231918562566E-07
         2 ->  124     -.35208064635281E-07
         2 ->  125     0.15036253661216E-07
         2 ->  126     0.15021376674906E-07
         2 ->  127     -.23173629597866E-07
         2 ->  128     0.17384778937885E-07
         2 ->  129     0.26783054687073E-07
         2 ->  130     0.76765307123700E-07
         2 ->  131     0.43594807735277E-07
         2 ->  132     -.34906100822880E-07
         2 ->  133     0.50832177363874E-07
         2 ->  134     -.15318731416239E-06
         2 ->  135     0.34046028141574E-07
         2 ->  136     0.11541957967280E-08
         2 ->  137     0.27399730708319E-07
         2 ->  138     -.37925338383149E-07
         2 ->  139     0.83810648838074E-07
         2 ->  140     0.70431175974357E-08
         2 ->  141     -.30483734276122E-07
         2 ->  142     0.97845736268568E-08
         2 ->  143     0.18672443841907E-07
         2 ->  144     0.11800500648739E-07
         2 ->  145     0.44939595207324E-08
         2 ->  146     -.10040245525724E-07
         2 ->  147     0.61898857231289E-07
         2 ->  148     -.77143646443835E-08
         2 ->  149     -.27880165544495E-07
         2 ->  150     -.17029668143830E-07
         2 ->  151     -.72890892387069E-07
         2 ->  152     -.11701941924794E-07
         2 ->  153     0.39175238973933E-07
         2 ->  154     -.31109214070871E-07
         2 ->  155     0.11378211873704E-07
         2 ->  156     0.40884618251023E-07
         2 ->  157     -.10533292960815E-06
         2 ->  158     0.30525496574372E-07
         2 ->  159     -.19986116473606E-07
         2 ->  160     -.15539555411444E-07
         2 ->  161     -.31975933360876E-07
         2 ->  162     -.37063889814562E-07
         2 ->  163     -.22835435366090E-07
         2 ->  164     0.69270498144144E-07
         2 ->  165     -.77663814215186E-07
         2 ->  166     0.24707903942913E-07
         2 ->  167     0.78509391452242E-07
         2 ->  168     -.80709823982615E-07
         2 ->  169     0.46717505051602E-07
         2 ->  170     0.38224518567280E-07
         2 ->  171     0.80679534685280E-09
         2 ->  172     -.15888791775583E-08
         2 ->  173     -.37079000455254E-08
         2 ->  174     -.23561943598604E-07
         2 ->  175     0.90947956553490E-07
         2 ->  176     0.25293271560486E-07
         2 ->  177     -.51998522847790E-08
         2 ->  178     0.19734718592991E-06
         2 ->  179     -.84518018753201E-08
         2 ->  180     0.19076870541910E-06
         2 ->  181     -.26345536120834E-07
         2 ->  182     -.13059731556929E-05
         2 ->  183     0.17002054583012E-06
         2 ->  184     -.21972751024992E-06
         2 ->  185     0.86888870671599E-07
         2 ->  186     0.75841947937506E-07
         2 ->  187     -.14689345241417E-06
         2 ->  188     -.25417402464581E-06
         2 ->  189     0.85740890404668E-07
         2 ->  190     -.47831066222948E-07
         2 ->  191     -.74455661275179E-07
         2 ->  192     0.29143229974736E-06
         2 ->  193     0.19751247936624E-07
         2 ->  199     -.26828661691275E-07
         3 ->   25     -.63592402098103E-08
         3 ->   26     0.54988482902810E-08
         3 ->   27     0.96580883667531E-08
         3 ->   28     -.16935580591848E-07
         3 ->   29     0.32036853976133E-07
         3 ->   30     -.20304433380788E-08
         3 ->   31     -.54692177510590E-07
         3 ->   32     0.94685552328509E-07
         3 ->   33     0.32129988446080E-08
         3 ->   34     -.18028895756270E-07
         3 ->   35     0.34687371405173E-07
         3 ->   36     -.11123344758941E-07
         3 ->   37     -.48700633810744E-08
         3 ->   38     0.93995119154086E-08
         3 ->   39     0.47700118584018E-07
         3 ->   40     -.54701174907239E-07
         3 ->   41     -.10997373484571E-06
         3 ->   42     0.32489696242594E-07
         3 ->   43     0.13726430937077E-07
         3 ->   44     0.82769839415668E-08
         3 ->   45     0.20231525940091E-08
         3 ->   46     0.24620490326278E-06
         3 ->   47     0.49404783194170E-07
         3 ->   48     0.57388542479439E-07
         3 ->   49     -.36290259956982E-08
         3 ->   50     0.84147487873920E-08
         3 ->   51     0.17703569909249E-08
         3 ->   52     0.49778952639957E-08
         3 ->   53     -.64190007022789E-07
         3 ->   54     -.21177509079444E-06
         3 ->   55     0.17260727107952E-06
         3 ->   56     -.43283051891319E-07
         3 ->   57     -.11447002552021E-07
         3 ->   58     0.85491950759077E-08
         3 ->   59     0.61547650024015E-07
         3 ->   60     -.12741290619993E-06
         3 ->   61     0.12924453677618E-07
         3 ->   62     0.95135127285102E-07
         3 ->   63     -.18671100593051E-06
         3 ->   64     -.12541446091909E-06
         3 ->   65     -.87235254117729E-07
         3 ->   66     0.39152839376845E-06
         3 ->   67     -.14737018115114E-07
         3 ->   68     0.27989135302178E-06
         3 ->   69     0.32187174540460E-07
         3 ->   70     -.98681281713227E-08
         3 ->   71     0.11993203114423E-07
         3 ->   72     0.23861075817804E-06
         3 ->   73     0.15756337354304E-06
         3 ->   74     0.82577593767861E-07
         3 ->   75     0.36181785280581E-07
         3 ->   76     0.46546928987990E-07
         3 ->   77     0.72563764137818E-07
         3 ->   78     0.24573840012378E-07
         3 ->   79     -.81942490282191E-07
         3 ->   80     0.30420023198909E-07
         3 ->   81     -.45051541424525E-07
         3 ->   82     -.23257533747692E-07
         3 ->   83     -.99245268674118E-07
         3 ->   84     -.62919887591901E-07
         3 ->   85     0.49015305727170E-07
         3 ->   86     0.39548042576446E-07
         3 ->   87     -.25382310778931E-07
         3 ->   88     -.65950861117824E-07
         3 ->   89     0.11113741162790E-06
         3 ->   90     -.25060369823266E-06
         3 ->   91     0.26894492427897E-06
         3 ->   92     0.17216865409755E-06
         3 ->   93     -.11584504389037E-06
         3 ->   94     0.19299273456555E-06
         3 ->   95     0.95164896260707E-07
         3 ->   96     0.51985443700095E-08
         3 ->   97     0.40736603094380E-06
         3 ->   98     -.28477119255788E-07
         3 ->   99     0.16212733531354E-07
         3 ->  100     -.77155575627868E-07
         3 ->  101     0.97123581597938E-07
         3 ->  102     -.99427051449600E-08
         3 ->  103     0.88700875524855E-08
         3 ->  104     0.17597857936897E-07
         3 ->  105     0.28221963261075E-07
         3 ->  106     0.38760898103466E-07
         3 ->  107     0.48761203500427E-09
         3 ->  108     -.79630327040394E-08
         3 ->  109     -.60277687314264E-07
         3 ->  110     0.17045592949823E-07
         3 ->  111     0.10180882130670E-06
         3 ->  112     0.72091354323297E-07
         3 ->  113     0.41901282787985E-07
         3 ->  114     -.11597460536725E-07
         3 ->  115     0.84165670450733E-07
         3 ->  116     -.56000214617188E-07
         3 ->  117     -.28388939160823E-07
         3 ->  118     0.13792492889481E-07
         3 ->  119     0.27013994797101E-07
         3 ->  120     -.17853574120193E-06
         3 ->  121     0.30475768864873E-07
         3 ->  122     -.61102228332267E-08
         3 ->  123     -.12053587570765E-08
         3 ->  124     0.33643128034666E-09
         3 ->  125     0.32557467966576E-07
         3 ->  126     0.53751936123358E-07
         3 ->  127     -.14618871486687E-07
         3 ->  128     0.53458297469705E-07
         3 ->  129     -.32865500326256E-08
         3 ->  130     0.39219254082698E-07
         3 ->  131     0.11640545696827E-07
         3 ->  132     0.12911815074150E-07
         3 ->  133     -.40765367444785E-07
         3 ->  134     -.16397345846060E-07
         3 ->  135     0.80181591935318E-07
         3 ->  136     -.11709931620999E-06
         3 ->  137     -.49943884677778E-07
         3 ->  138     0.71926800722874E-07
         3 ->  139     0.72719232618981E-07
         3 ->  140     0.87241459811987E-08
         3 ->  141     -.40156238850309E-08
         3 ->  142     0.65591050474279E-07
         3 ->  143     0.33262194068994E-07
         3 ->  144     0.38265949171160E-07
         3 ->  145     0.20213215417896E-07
         3 ->  146     -.11717069676686E-07
         3 ->  147     -.77286927445192E-07
         3 ->  148     0.13769896666439E-06
         3 ->  149     -.75728410899858E-07
         3 ->  150     -.10662094385108E-08
         3 ->  151     -.14873027486970E-06
         3 ->  152     -.38252124363306E-07
         3 ->  153     -.50501517996976E-08
         3 ->  154     -.68613229013423E-07
         3 ->  155     -.43129587884155E-07
         3 ->  156     -.11948493637003E-06
         3 ->  157     0.30424891035148E-06
         3 ->  158     0.11174952545755E-06
         3 ->  159     -.77499087628993E-07
         3 ->  160     0.20738841641702E-06
         3 ->  161     -.56788650957813E-07
         3 ->  162     0.91599704769897E-07
         3 ->  163     -.75614142864862E-07
         3 ->  164     -.60386223638334E-06
         3 ->  165     -.71118181860477E-06
         3 ->  166     0.66128693481993E-07
         3 ->  167     0.38066149563798E-07
         3 ->  168     -.23346034688679E-06
         3 ->  169     0.14043681687351E-06
         3 ->  170     0.17957704077904E-06
         3 ->  171     -.98911614791591E-07
         3 ->  172     0.33757783979769E-07
         3 ->  173     0.11736831900321E-06
         3 ->  174     -.57442527134439E-07
         3 ->  175     -.44084678842758E-08
         3 ->  176     0.29199403482830E-08
         3 ->  177     0.96318542276396E-08
         3 ->  178     0.65614948788732E-08
         3 ->  179     0.34620649691054E-07
         3 ->  180     -.32103841562667E-08
         3 ->  181     -.10989410326411E-08
         3 ->  182     0.14055985687599E-07
         3 ->  183     -.43068930838862E-07
         3 ->  184     -.21015721011452E-07
         3 ->  185     -.26864415121266E-07
         3 ->  186     0.36576858240933E-07
         3 ->  187     -.32717669108190E-07
         3 ->  188     0.11675560747462E-07
         3 ->  189     -.57321195416829E-08
         3 ->  190     -.50460751164743E-07
         3 ->  191     -.10678047993119E-07
         3 ->  192     -.27534075515453E-08
         3 ->  193     -.37692966363319E-07
         3 ->  194     0.71104045150169E-08
         3 ->  196     -.37940205853830E-09
         3 ->  197     -.22275967990442E-08
         3 ->  198     0.46452618892961E-08
         4 ->   25     -.21758140717919E-06
         4 ->   26     0.12193441536238E-06
         4 ->   27     0.27452860340718E-06
         4 ->   28     -.31940192868519E-06
         4 ->   29     -.61382594956137E-07
         4 ->   30     0.30843683585320E-06
         4 ->   31     0.12557034068721E-05
         4 ->   32     -.42175700381349E-05
         4 ->   33     0.32284128515618E-06
         4 ->   34     0.25161483434168E-07
         4 ->   35     0.21275259708745E-06
         4 ->   36     0.64235465804713E-07
         4 ->   37     -.17317887914194E-06
         4 ->   38     -.54802424404190E-06
         4 ->   39     -.75019240047389E-06
         4 ->   40     0.13663642035874E-05
         4 ->   41     0.18711357089475E-05
         4 ->   42     -.54955918327647E-06
         4 ->   43     -.42906554422292E-06
         4 ->   44     -.25294962915456E-06
         4 ->   45     -.10163185162741E-05
         4 ->   46     0.34448091820897E-05
         4 ->   47     0.19566667544640E-06
         4 ->   48     -.15587169949531E-05
         4 ->   49     -.16089179816629E-05
         4 ->   50     0.27661964216696E-05
         4 ->   51     -.11131494588191E-05
         4 ->   52     0.23812433682445E-06
         4 ->   53     -.11259476462058E-06
         4 ->   54     -.27034664673434E-06
         4 ->   55     0.21592633998065E-06
         4 ->   56     0.19382645649787E-06
         4 ->   57     -.10349092484481E-05
         4 ->   58     -.22319537848175E-05
         4 ->   59     -.21344505492097E-06
         4 ->   60     -.65147808045058E-07
         4 ->   61     -.45151737558229E-06
         4 ->   62     -.92427847129634E-06
         4 ->   63     0.39172360702857E-05
         4 ->   64     0.10474867388800E-05
         4 ->   65     -.17423714308447E-05
         4 ->   66     0.28283979194543E-07
         4 ->   67     0.64525621765293E-06
         4 ->   68     0.24265436772185E-06
         4 ->   69     0.98757186959586E-07
         4 ->   70     0.10302914732801E-06
         4 ->   71     -.24935069444369E-06
         4 ->   72     0.74798565992956E-09
         4 ->   73     -.30645413255297E-06
         4 ->   74     0.16162055880015E-06
         4 ->   75     0.22536284044367E-06
         4 ->   76     0.17730289419160E-06
         4 ->   77     0.33287902328053E-06
         4 ->   78     0.26756954147431E-06
         4 ->   79     -.46625400173450E-06
         4 ->   80     -.44703807520731E-06
         4 ->   81     -.71876334969265E-06
         4 ->   82     -.28144315918200E-06
         4 ->   83     -.46801424996543E-06
         4 ->   84     0.41132116861933E-06
         4 ->   85     0.36470706346865E-06
         4 ->   86     -.63145926131095E-07
         4 ->   87     0.38578515734628E-06
         4 ->   88     0.33155059394456E-06
         4 ->   89     -.96455566818896E-06
         4 ->   90     0.25567387064392E-05
         4 ->   91     -.39700403646084E-05
         4 ->   92     0.70100821320847E-05
         4 ->   93     0.85245660807399E-06
         4 ->   94     -.25012795998201E-05
         4 ->   95     -.16160454674374E-06
         4 ->   96     -.12378546978747E-05
         4 ->   97     0.20972041464378E-05
         4 ->   98     -.15930599101015E-05
         4 ->   99     -.76051162117821E-06
         4 ->  100     0.51546688309979E-06
         4 ->  101     0.57803900452123E-06
         4 ->  102     0.53440187044473E-06
         4 ->  103     -.31852897868508E-07
         4 ->  104     0.66595545194287E-07
         4 ->  105     0.87007533119399E-06
         4 ->  106     -.63780446264287E-06
         4 ->  107     -.27209313373604E-06
         4 ->  108     -.15584934146770E-06

 Alpha  occ. eigenvalues --  -14.26253 -14.26091 -10.16572 -10.15580 -10.15496
 Alpha  occ. eigenvalues --  -10.13319 -10.12731  -0.86639  -0.83163  -0.70306
 Alpha  occ. eigenvalues --   -0.65037  -0.52071  -0.45995  -0.43368  -0.35140
 Alpha  occ. eigenvalues --   -0.32536  -0.31485  -0.29199  -0.27624  -0.26214
 Alpha  occ. eigenvalues --   -0.24635  -0.18264  -0.16433  -0.10769
 Alpha virt. eigenvalues --    0.03562   0.03963   0.06595   0.07053   0.07128
 Alpha virt. eigenvalues --    0.07158   0.07411   0.07473   0.08416   0.08655
 Alpha virt. eigenvalues --    0.14404   0.14808   0.15715   0.16021   0.16221

 Mulliken atomic charges:
              1
     1  N   -0.132201
     2  C    0.677803
     3  C   -0.202486
     4  C   -0.125338
     5  C   -0.010756
     6  C   -1.222449
     7  N   -0.367807
     8  H    0.138950
     9  H    0.134332
    10  H    0.109953
 Sum of Mulliken atomic charges =  -1.00000

 Dipole moment (field-independent basis, Debye):
    X=              2.1615    Y=              2.9031    Z=             -0.2024  Tot=              3.6251
 Quadrupole moment (field-independent basis, Debye-Ang):
   XX=            -63.9976   YY=            -51.8181   ZZ=            -46.9886
   XY=             -6.5252   XZ=             -0.8027   YZ=             -0.1331

 Normal termination of Gaussian 09 at Fri May 26 03:03:34 2023.
