 Gaussian 09, Revision A.02,

 ----------------------------------------------------------------------
 #p wB97XD/GEN 6D Iop(6/7=3) Iop(9/40=14) scf(maxcyc=200,conver=8) nosy
 m Guess(Read,TCheck) GFInput
 ----------------------------------------------------------------------

 -------
 Comment
 -------
 Symbolic Z-matrix:
 Charge = -1 Multiplicity = 1

 SCF Done:  E(RwB97XD) =  -301.757472869     A.U. after   14 cycles
 Normal termination of Gaussian 09 at Fri May 26 02:38:35 2023.
 Gaussian 09:  EM64L-G09RevA.02 11-Jun-2009

 ----------------------------------------------------------------------
 #p TD(full,nstates=1,root=1) Force wB97XD/GEN 6D Iop(6/7=3) Iop(9/40=1
 4) scf(maxcyc=200,conver=8) nosym Guess(Read) Geom=AllCheck
 ----------------------------------------------------------------------

 Comment
 -------
 Z-Matrix taken from the checkpoint file:
 an.chk
 Charge = -1 Multiplicity = 1

                          Input orientation:
 ---------------------------------------------------------------------
 Center     Atomic      Atomic             Coordinates (Angstroms)
 Number     Number       Type             X           Y           Z
 ---------------------------------------------------------------------
      1          7           0        0.951920   -0.928238   -0.002453
      2          6           0       -0.241784   -0.113870    0.057253
      3          6           0        0.059605    1.261091   -0.001439
      4          6           0        1.358420    1.359373    0.063605
      5          6           0        1.943684   -0.011023   -0.055110
      6          6           0       -1.571898   -0.618290   -0.019320
      7          7           0       -2.670372   -1.023247   -0.016861
      8          1           0       -0.548133    2.243069    0.010142
      9          1           0        2.419596    1.962365    0.021870
     10          1           0        3.129240   -0.384669   -0.299588
 ---------------------------------------------------------------------

 SCF Done:  E(RwB97XD) =  -301.757472869     A.U. after    1 cycles

 Excitation energies and oscillator strengths:

 Excited state symmetry could not be determined.
 Excited State   1:      Singlet-?Sym    2.9824362999 eV  415.71 nm  f=0.0008533805  <S**2>=0.000
         1 ->   25     0.81618828785004E-08
         1 ->   26     -.39871520725963E-08
         1 ->   27     -.56608179788847E-08
         1 ->   28     0.91899469479494E-07
         1 ->   29     0.11503419980952E-06
         1 ->   30     -.51517112473905E-06
         1 ->   31     0.28893829814168E-06
         1 ->   32     -.12371708674168E-05
         1 ->   33     -.34064208607784E-07
         1 ->   34     -.23128334204595E-07
         1 ->   35     -.24924018411837E-07
         1 ->   36     0.73092004312862E-07
         1 ->   37     0.20707292581013E-06
         1 ->   38     -.67018896850904E-06
         1 ->   39     -.13153817035935E-06
         1 ->   40     0.12255187692510E-06
         1 ->   41     0.41415664610085E-07
         1 ->   42     -.19138326608279E-07
         1 ->   43     -.16911428184601E-07
         1 ->   44     -.27815832986704E-07
         1 ->   45     0.17100086951473E-06
         1 ->   46     -.11562871924662E-05
         1 ->   47     -.39740814009923E-07
         1 ->   48     -.21372210081997E-06
         1 ->   49     -.17058287613334E-08
         1 ->   50     -.89051796675237E-08
         1 ->   51     -.55612837544532E-07
         1 ->   52     -.55686991884734E-07
         1 ->   53     0.18724954196312E-06
         1 ->   54     0.44342394735681E-06
         1 ->   55     0.29846061916810E-06
         1 ->   56     0.10421135157971E-06
         1 ->   57     -.11736252288880E-06
         1 ->   58     -.12738695553398E-06
         1 ->   59     -.12510507512708E-06
         1 ->   60     0.23234385069069E-06
         1 ->   61     0.71739431731463E-07
         1 ->   62     -.18253152799927E-06
         1 ->   63     0.12406575613918E-06
         1 ->   64     0.41007057955834E-06
         1 ->   65     0.10053661291846E-06
         1 ->   66     -.50432334434404E-06
         1 ->   67     -.10808906557110E-07
         1 ->   68     -.47656820358861E-06
         1 ->   69     0.18352873267014E-06
         1 ->   70     0.61000418490527E-07
         1 ->   71     -.49984967810542E-06
         1 ->   72     -.87265622757343E-06
         1 ->   73     -.72386572569519E-06
         1 ->   74     -.18647821790739E-06
         1 ->   75     -.36376863530649E-06
         1 ->   76     -.14355075719075E-06
         1 ->   77     -.40166031850658E-06
         1 ->   78     -.40253694528897E-06
         1 ->   79     -.77710884722170E-07
         1 ->   80     -.92152491821226E-07
         1 ->   81     -.51747398865071E-07
         1 ->   82     0.40903282634967E-07
         1 ->   83     0.32263669122483E-07
         1 ->   84     0.76863342623825E-07
         1 ->   85     -.47781998629892E-07
         1 ->   86     -.42222511396401E-07
         1 ->   87     -.53309009444825E-08
         1 ->   88     0.15809104577655E-07
         1 ->   89     -.86337683767997E-07
         1 ->   90     0.16766743848474E-06
         1 ->   91     -.17156421187598E-06
         1 ->   92     0.39940791570400E-07
         1 ->   93     -.21288531579660E-07
         1 ->   94     0.89560580016268E-07
         1 ->   95     0.12823765690098E-07
         1 ->   96     -.97327963073657E-07
         1 ->   97     0.30219512654258E-06
         1 ->   98     0.60668454255253E-07
         1 ->   99     0.28079300252263E-06
         1 ->  100     -.10616514034926E-07
         1 ->  101     -.11288061173864E-06
         1 ->  102     -.10356155170349E-06
         1 ->  103     -.16484727273065E-06
         1 ->  104     0.56923439791959E-07
         1 ->  105     -.51432231091106E-06
         1 ->  106     0.18337055101966E-06
         1 ->  107     0.42668129079492E-06
         1 ->  108     -.30952258178375E-06
         1 ->  109     0.16551975232613E-05
         1 ->  110     0.45354227510849E-06
         1 ->  111     0.11702692395702E-05
         1 ->  112     -.94981247136157E-06
         1 ->  113     -.85149608622646E-07
         1 ->  114     0.14021032958490E-06
         1 ->  115     0.55626441927804E-07
         1 ->  116     -.38360040618114E-07
         1 ->  117     -.38530102752709E-07
         1 ->  118     -.10052832779551E-06
         1 ->  119     -.64950019108988E-07
         1 ->  120     0.41926035285798E-06
         1 ->  121     -.61016122744750E-07
         1 ->  122     0.15141555561822E-06
         1 ->  123     -.52691029947598E-07
         1 ->  124     0.22943489953017E-06
         1 ->  125     0.12900925728260E-06
         1 ->  126     -.37090325511873E-07
         1 ->  127     -.46364194051195E-07
         1 ->  128     -.40198357064317E-06
         1 ->  129     0.77804570357446E-07
         1 ->  130     -.90231185044758E-07
         1 ->  131     0.17560715690688E-06
         1 ->  132     -.27897941790234E-07
         1 ->  133     0.46093841509865E-07
         1 ->  134     -.11022322678819E-06
         1 ->  135     0.40434493036540E-06
         1 ->  136     -.49134281607364E-06
         1 ->  137     -.23845959559710E-06
         1 ->  138     0.19630773064349E-06
         1 ->  139     0.13635675701280E-06
         1 ->  140     0.56391356408812E-08
         1 ->  141     -.92143348485783E-07
         1 ->  142     0.10158422670867E-06
         1 ->  143     0.83687190229931E-07
         1 ->  144     0.56817708634023E-07
         1 ->  145     0.67303284923496E-07
         1 ->  146     -.41844609840061E-07
         1 ->  147     -.40747636984945E-07
         1 ->  148     0.13395101410213E-06
         1 ->  149     -.38353377248546E-07
         1 ->  150     -.47099710009315E-07
         1 ->  151     0.12424743841855E-07
         1 ->  152     0.20897979975445E-08
         1 ->  153     -.27722409888705E-07
         1 ->  154     0.94344663041073E-07
         1 ->  155     0.72298852470620E-07
         1 ->  156     0.10327941038234E-06
         1 ->  157     -.32740463899740E-06
         1 ->  158     -.81730685666845E-07
         1 ->  159     0.83154506076224E-07
         1 ->  160     -.74710352812248E-07
         1 ->  162     -.51821929674531E-08
         1 ->  163     -.14198986617793E-07
         1 ->  164     -.20481420630612E-06
         1 ->  165     -.63221109351700E-06
         1 ->  166     0.86506062522923E-08
         1 ->  167     -.10158891707438E-06
         1 ->  168     0.60808953642690E-06
         1 ->  169     -.18656151035608E-07
         1 ->  170     -.30466620567547E-06
         1 ->  171     0.15561682579874E-06
         1 ->  172     -.71875683010571E-07
         1 ->  173     0.39484651283481E-07
         1 ->  174     -.46551639285704E-07
         1 ->  175     0.34590625196815E-07
         1 ->  176     0.70378021341656E-07
         1 ->  177     -.10412343322901E-06
         1 ->  178     -.20206190338277E-07
         1 ->  179     -.90279015336306E-07
         1 ->  180     -.56509090808169E-08
         1 ->  181     0.23280264663064E-06
         1 ->  182     -.10341696562403E-05
         1 ->  183     0.42918942441692E-05
         1 ->  184     -.29018945888378E-05
         1 ->  185     -.32261148512253E-06
         1 ->  186     0.38178395291329E-06
         1 ->  187     -.31748544791780E-06
         1 ->  188     0.74086463302142E-07
         1 ->  189     -.28280693609225E-06
         1 ->  190     -.36389470871032E-07
         1 ->  191     -.12479504756431E-07
         1 ->  192     0.34329056004608E-07
         1 ->  193     0.19359898676498E-07
         1 ->  200     0.52864645541675E-08
         2 ->   25     0.51438291296779E-07
         2 ->   26     -.39221807713767E-07
         2 ->   27     -.62626090804039E-07
         2 ->   28     0.11558983426801E-06
         2 ->   29     0.20726922257265E-07
         2 ->   30     0.10473575153747E-07
         2 ->   31     -.15755520007364E-06
         2 ->   32     0.35314019645747E-06
         2 ->   33     -.86646931577552E-07
         2 ->   34     0.20165553460127E-07
         2 ->   35     -.92901842388981E-07
         2 ->   36     -.13142144599848E-08
         2 ->   37     0.85989081660051E-08
         2 ->   38     0.15461912012492E-06
         2 ->   39     0.72893697017650E-07
         2 ->   40     -.10665703568927E-06
         2 ->   41     -.55164866252643E-07
         2 ->   42     0.19466958112488E-07
         2 ->   43     0.52048868408566E-07
         2 ->   44     -.77705368917073E-08
         2 ->   45     -.10004557983480E-06
         2 ->   46     0.42842312034201E-06
         2 ->   47     0.23119325419441E-06
         2 ->   48     -.33837837307194E-07
         2 ->   49     -.68623250568921E-07
         2 ->   50     -.13898078342829E-06
         2 ->   51     -.91630119714240E-07
         2 ->   52     0.53615342235239E-07
         2 ->   53     0.29822777408638E-07
         2 ->   54     -.43929441352739E-07
         2 ->   55     -.52060450146622E-07
         2 ->   56     0.34140487767661E-07
         2 ->   57     -.40526746127509E-07
         2 ->   58     -.14389710584355E-06
         2 ->   59     -.75170963617477E-08
         2 ->   60     -.37851245188648E-07
         2 ->   61     -.45834325976219E-07
         2 ->   62     -.91725082499434E-07
         2 ->   63     0.19656533673777E-06
         2 ->   64     0.10012017662845E-07
         2 ->   65     -.83738526266724E-07
         2 ->   66     -.12694943994867E-06
         2 ->   67     0.99336341619299E-07
         2 ->   68     -.12638144282633E-06
         2 ->   69     -.12678101706678E-06
         2 ->   70     0.11984761774517E-06
         2 ->   71     0.20401640127737E-06
         2 ->   72     -.10582322301142E-06
         2 ->   73     -.55938371620246E-07
         2 ->   74     -.12221851530399E-06
         2 ->   75     -.94649928152652E-07
         2 ->   76     -.95556816980127E-07
         2 ->   77     -.42858291636276E-07
         2 ->   78     -.12572983763054E-06
         2 ->   79     0.26509021471688E-07
         2 ->   80     0.89215523284936E-08
         2 ->   81     -.55649580756412E-07
         2 ->   82     0.24951303662159E-08
         2 ->   83     -.87794107422227E-07
         2 ->   84     0.12987362354141E-06
         2 ->   85     -.29710757071265E-07
         2 ->   86     0.87669238739350E-07
         2 ->   87     0.23334577580566E-07
         2 ->   88     0.43847285305323E-07
         2 ->   89     -.11196042623317E-07
         2 ->   90     0.74389299261861E-07
         2 ->   91     -.21161226600996E-07
         2 ->   92     0.52418847043515E-07
         2 ->   93     0.14559692187147E-06
         2 ->   94     0.64162250260001E-07
         2 ->   95     -.41844019934439E-07
         2 ->   96     -.23547987012064E-07
         2 ->   97     0.64090395986088E-07
         2 ->   98     0.19494463722964E-07
         2 ->   99     -.21882358925442E-07
         2 ->  100     0.20852783387184E-07
         2 ->  101     -.32494510473956E-07
         2 ->  102     -.16232625923091E-07
         2 ->  103     -.87412374277462E-07
         2 ->  104     -.39385928486788E-07
         2 ->  105     0.57387911473921E-07
         2 ->  106     -.10242482896283E-06
         2 ->  107     0.47404567869592E-07
         2 ->  108     0.19935277604101E-06
         2 ->  109     -.31087023610531E-06
         2 ->  110     0.60286508440667E-06
         2 ->  111     0.53407566588665E-07
         2 ->  112     -.15605305058606E-06
         2 ->  113     -.18359872875741E-06
         2 ->  114     0.61184084287079E-07
         2 ->  115     0.59089692385316E-07
         2 ->  116     -.48208627822674E-07
         2 ->  117     0.47401346602500E-07
         2 ->  118     0.96822901599778E-07
         2 ->  119     0.11072981383202E-07
         2 ->  120     -.60619510053821E-09
         2 ->  121     -.16735834945881E-08
         2 ->  122     0.28596355380358E-07
         2 ->  123     0.82863372729025E-07
         2 ->  124     -.38274671715498E-07
         2 ->  125     0.44342811174060E-08
         2 ->  126     0.21163816736919E-07
         2 ->  127     -.11331373120716E-07
         2 ->  128     0.19407622478317E-07
         2 ->  129     0.37285328782423E-07
         2 ->  130     0.67167853194320E-07
         2 ->  131     0.44672930898523E-07
         2 ->  132     -.22890460813195E-07
         2 ->  133     0.51479911379651E-07
         2 ->  134     -.15979000404439E-06
         2 ->  135     0.26793350333799E-07
         2 ->  136     -.37593674882342E-08
         2 ->  137     0.33246594393222E-07
         2 ->  138     -.35444291402483E-07
         2 ->  139     0.85450203018994E-07
         2 ->  140     0.11343096165259E-07
         2 ->  141     -.40386329433252E-07
         2 ->  142     -.12189923190292E-08
         2 ->  143     0.29556820938100E-07
         2 ->  144     0.12993454839921E-07
         2 ->  145     -.19203339257194E-09
         2 ->  146     -.31559338515902E-08
         2 ->  147     0.69168634167728E-07
         2 ->  148     0.13369442817568E-08
         2 ->  149     -.30077824644995E-07
         2 ->  150     -.33136300414233E-08
         2 ->  151     -.61659231746509E-07
         2 ->  152     -.10013476107309E-07
         2 ->  153     0.37957529197963E-07
         2 ->  154     -.22621414068131E-07
         2 ->  155     0.12202518443605E-07
         2 ->  156     0.46038891314355E-07
         2 ->  157     -.95723477262753E-07
         2 ->  158     0.33258239991974E-07
         2 ->  159     -.25750800419401E-07
         2 ->  160     -.12087751056933E-07
         2 ->  161     -.36452732868465E-07
         2 ->  162     -.37472818460436E-07
         2 ->  163     -.15172107740007E-07
         2 ->  164     0.69797084112966E-07
         2 ->  165     -.75920659327140E-07
         2 ->  166     0.20095799491384E-07
         2 ->  167     0.82300880696589E-07
         2 ->  168     -.88621738451958E-07
         2 ->  169     0.31411797829854E-07
         2 ->  170     0.47077695152051E-07
         2 ->  171     0.16343387667082E-08
         2 ->  172     0.92716904162636E-08
         2 ->  173     -.42616736236001E-09
         2 ->  174     -.21615423518668E-07
         2 ->  175     0.88326705145173E-07
         2 ->  176     -.51232267670911E-07
         2 ->  177     -.77647882894409E-08
         2 ->  178     0.20953981435855E-06
         2 ->  179     -.50220355332363E-08
         2 ->  180     0.18905131859003E-06
         2 ->  181     -.89312050048306E-08
         2 ->  182     0.13324025165033E-05
         2 ->  183     0.16140898900849E-06
         2 ->  184     -.23148295468863E-06
         2 ->  185     0.87022100267581E-07
         2 ->  186     0.83443552423188E-07
         2 ->  187     -.15865666729737E-06
         2 ->  188     -.25341036137777E-06
         2 ->  189     0.83191364757473E-07
         2 ->  190     -.46869583525460E-07
         2 ->  191     -.48531082386793E-07
         2 ->  192     0.29978589238273E-06
         2 ->  193     0.66993629267424E-08
         2 ->  195     0.47149975487916E-08
         2 ->  199     -.24275236540500E-07
         3 ->   25     -.27849708829865E-07
         3 ->   26     -.58625150730813E-08
         3 ->   27     0.19298971606110E-07
         3 ->   28     -.96346406782342E-08
         3 ->   29     0.23053742479204E-07
         3 ->   30     -.13580362381064E-07
         3 ->   31     -.51931448946690E-07
         3 ->   32     0.11037969643784E-06
         3 ->   33     0.29523579499608E-07
         3 ->   34     -.43062678669906E-07
         3 ->   35     0.35374907355339E-07
         3 ->   36     -.73101102987875E-08
         3 ->   37     -.13204107902481E-08
         3 ->   38     0.92103721946698E-09
         3 ->   39     0.44581603662953E-07
         3 ->   40     -.70055267812096E-07
         3 ->   41     -.11648019407895E-06
         3 ->   42     0.30133767491450E-07
         3 ->   43     0.13117812912214E-07
         3 ->   44     0.79054544185648E-08
         3 ->   45     0.43151642391241E-08
         3 ->   46     0.24153568881173E-06
         3 ->   47     0.47859692156987E-07
         3 ->   48     0.63827600806985E-07
         3 ->   49     0.60056587358333E-08
         3 ->   50     -.88685897364107E-08
         3 ->   51     0.17211155771700E-07
         3 ->   52     0.35032218390168E-09
         3 ->   53     -.73213125561062E-07
         3 ->   54     -.20234465267459E-06
         3 ->   55     -.16395794856874E-06
         3 ->   56     -.47361317080169E-07
         3 ->   57     -.16259943295762E-07
         3 ->   58     -.24500191104748E-08
         3 ->   59     0.59518100552916E-07
         3 ->   60     -.11629665174189E-06
         3 ->   61     -.29843515817286E-08
         3 ->   62     0.11178378286189E-06
         3 ->   63     -.17409153077111E-06
         3 ->   64     -.11522359736029E-06
         3 ->   65     -.93507908034272E-07
         3 ->   66     0.37762126919985E-06
         3 ->   67     -.24908767674262E-07
         3 ->   68     0.27232601540773E-06
         3 ->   69     0.30740114581771E-07
         3 ->   70     -.86822778514786E-08
         3 ->   71     0.23603859200995E-07
         3 ->   72     0.22154618755003E-06
         3 ->   73     0.16235660537797E-06
         3 ->   74     0.41804042929507E-07
         3 ->   75     0.44350402838255E-07
         3 ->   76     0.51687266096945E-07
         3 ->   77     0.80119196763278E-07
         3 ->   78     0.34219174008383E-07
         3 ->   79     -.75175669430144E-07
         3 ->   80     0.26484608603056E-07
         3 ->   81     -.43668808949388E-07
         3 ->   82     -.20352384860410E-07
         3 ->   83     -.10234921510995E-06
         3 ->   84     -.56391018025947E-07
         3 ->   85     0.43939575980360E-07
         3 ->   86     0.33930521800645E-07
         3 ->   87     -.14512461766729E-07
         3 ->   88     -.70773480689486E-07
         3 ->   89     0.10756705223790E-06
         3 ->   90     -.25062491520646E-06
         3 ->   91     0.24288788799533E-06
         3 ->   92     0.17643642210360E-06
         3 ->   93     -.12236288133939E-06
         3 ->   94     0.17433555696681E-06
         3 ->   95     0.10285097452392E-06
         3 ->   96     0.34110504749312E-08
         3 ->   97     0.40328555219988E-06
         3 ->   98     -.26836435337050E-07
         3 ->   99     0.17709388742556E-07
         3 ->  100     -.70397990982298E-07
         3 ->  101     0.94694179248850E-07
         3 ->  102     -.84957983371399E-08
         3 ->  103     0.13504596343758E-07
         3 ->  104     0.15367087619918E-07
         3 ->  105     0.25584603330756E-07
         3 ->  106     0.37015585135879E-07
         3 ->  107     0.43714572702261E-08
         3 ->  108     -.17968328056441E-07
         3 ->  109     -.58549162770889E-07
         3 ->  110     0.17868645235619E-07
         3 ->  111     -.97192192618617E-07
         3 ->  112     0.81265498487466E-07
         3 ->  113     0.20759780383668E-07
         3 ->  114     -.24024108622079E-07
         3 ->  115     0.73294939120464E-07
         3 ->  116     -.46826895242227E-07
         3 ->  117     -.26687332351956E-07
         3 ->  118     0.12873913614676E-07
         3 ->  119     0.24115869222249E-07
         3 ->  120     -.17539045460455E-06
         3 ->  121     0.29380745692822E-07
         3 ->  122     -.69764702517951E-08
         3 ->  123     0.11909554262980E-07
         3 ->  124     -.42156668644934E-09
         3 ->  125     0.22530302672373E-07
         3 ->  126     0.47180660231939E-07
         3 ->  127     -.12754146268777E-07
         3 ->  128     0.52984477615290E-07
         3 ->  129     -.24096667468356E-08
         3 ->  130     0.39563711630540E-07
         3 ->  131     0.12589323455144E-07
         3 ->  132     0.11894180707862E-07
         3 ->  133     -.40055924850358E-07
         3 ->  134     -.13951940784535E-07
         3 ->  135     0.85946955407459E-07
         3 ->  136     -.10963612656861E-06
         3 ->  137     -.49959991260509E-07
         3 ->  138     0.62263083674806E-07
         3 ->  139     0.59972999197654E-07
         3 ->  140     0.16347044320995E-07
         3 ->  141     0.74865140376869E-08
         3 ->  142     0.60643744094080E-07
         3 ->  143     0.39486076974769E-07
         3 ->  144     0.31818983748325E-07
         3 ->  145     0.26046901256289E-07
         3 ->  146     -.15058953894845E-07
         3 ->  147     -.93669552101741E-07
         3 ->  148     0.12234919883211E-06
         3 ->  149     -.73676733711291E-07
         3 ->  150     0.11369781308400E-07
         3 ->  151     -.14308929575907E-06
         3 ->  152     -.38842402107492E-07
         3 ->  153     0.39336776308882E-08
         3 ->  154     -.61412375631210E-07
         3 ->  155     -.30392173729421E-07
         3 ->  156     -.12629578833026E-06
         3 ->  157     0.28723267482405E-06
         3 ->  158     0.10505341680236E-06
         3 ->  159     -.78021598416962E-07
         3 ->  160     0.20559206363664E-06
         3 ->  161     -.52818380145741E-07
         3 ->  162     0.79998699084711E-07
         3 ->  163     -.81106688804627E-07
         3 ->  164     -.59568796559503E-06
         3 ->  165     -.68967559488705E-06
         3 ->  166     0.78033868785565E-07
         3 ->  167     0.34745783749705E-07
         3 ->  168     -.23217946188493E-06
         3 ->  169     0.12919535761904E-06
         3 ->  170     0.18426366693124E-06
         3 ->  171     -.80830214719782E-07
         3 ->  172     0.24176185323617E-07
         3 ->  173     0.11348643725659E-06
         3 ->  174     -.52574419769598E-07
         3 ->  175     0.88310751012066E-09
         3 ->  176     -.44349913220404E-08
         3 ->  177     0.14215940296686E-07
         3 ->  178     0.10707608069449E-07
         3 ->  179     0.22780171845674E-07
         3 ->  180     -.12811715724215E-07
         3 ->  181     0.22691017901037E-08
         3 ->  182     -.14133862041778E-07
         3 ->  183     -.46042424272104E-07
         3 ->  184     -.19974553913226E-07
         3 ->  185     -.22968036068193E-07
         3 ->  186     0.42046127173943E-07
         3 ->  187     -.24609742441354E-07
         3 ->  188     0.20502316947084E-07
         3 ->  189     -.44814535732158E-08
         3 ->  190     -.56130845501127E-07
         3 ->  191     -.66268501612494E-08
         3 ->  192     -.75364726773299E-08
         3 ->  193     -.31872343379854E-07
         3 ->  194     -.96373457535791E-08
         3 ->  196     0.22262201917284E-08
         3 ->  197     0.93286771982697E-08
         3 ->  198     -.96670280242007E-08
         4 ->   25     -.82319112079592E-07
         4 ->   26     0.78453736051659E-07
         4 ->   27     0.15981684293557E-06
         4 ->   28     -.45602416051452E-06
         4 ->   29     -.31273687938280E-06
         4 ->   30     0.50601760552910E-06
         4 ->   31     -.11178542675721E-05
         4 ->   32     0.45891629745228E-05
         4 ->   33     0.22718067379742E-07
         4 ->   34     -.36646225707571E-07
         4 ->   35     0.37346772170525E-06
         4 ->   36     -.19710394541572E-06
         4 ->   37     -.37737544881726E-06
         4 ->   38     0.14839114115429E-05
         4 ->   39     0.74619255446216E-06
         4 ->   40     -.14371293564004E-05
         4 ->   41     -.17658024912988E-05
         4 ->   42     0.73942123538605E-06
         4 ->   43     0.24034668323956E-06
         4 ->   44     0.13241212729217E-06
         4 ->   45     0.54195753691397E-06
         4 ->   46     -.23568312175518E-05
         4 ->   47     0.12183039189735E-05
         4 ->   48     -.53423778462517E-08
         4 ->   49     0.57175138327128E-06
         4 ->   50     -.77924447341630E-07
         4 ->   51     0.60766717583867E-07
         4 ->   52     0.11186524199476E-06
         4 ->   53     -.38338783838386E-06
         4 ->   54     -.73398444845827E-06
         4 ->   55     -.83191490309987E-06
         4 ->   56     -.14899621592945E-06
         4 ->   57     0.24801995790111E-06
         4 ->   58     0.56557498215029E-06
         4 ->   59     0.23342426966043E-06
         4 ->   60     0.21642189852123E-06
         4 ->   61     0.36241723764221E-06
         4 ->   62     0.86615741906939E-06
         4 ->   63     -.82225917801892E-06
         4 ->   64     -.28875868192249E-06
         4 ->   65     -.12859077879920E-05
         4 ->   66     0.32856840682538E-05
         4 ->   67     -.89281503043569E-07
         4 ->   68     0.19292860852158E-05
         4 ->   69     0.12229770015058E-06
         4 ->   70     -.47430495766257E-06
         4 ->   71     -.60307503068188E-08
         4 ->   72     0.13347417558946E-05
         4 ->   73     0.10493400304647E-05
         4 ->   74     0.57378459223944E-06
         4 ->   75     0.62077400391068E-06
         4 ->   76     0.37318395415080E-07
         4 ->   77     0.55376616833365E-06
         4 ->   78     0.85140375870445E-06
         4 ->   79     -.11448835857722E-06
         4 ->   80     0.12389840902075E-06
         4 ->   81     0.11973578687669E-06
         4 ->   82     -.59343280736483E-06
         4 ->   83     -.69292697669258E-07
         4 ->   84     -.40317699126056E-06
         4 ->   85     0.45449069589989E-06
         4 ->   86     0.13166054707515E-06
         4 ->   87     -.23412477472796E-07
         4 ->   88     0.37282586890358E-06
         4 ->   89     -.34100517714267E-06
         4 ->   90     0.29763099136544E-06
         4 ->   91     -.80025085136914E-06
         4 ->   92     -.29481492280882E-05
         4 ->   93     0.96195740794782E-06
         4 ->   94     -.12606855174500E-05
         4 ->   95     0.91816056938882E-07
         4 ->   96     -.12012084695469E-05
         4 ->   97     0.35527523549968E-05
         4 ->   98     -.19544259304251E-06
         4 ->   99     0.18756893697120E-05
         4 ->  100     -.57517736615323E-06
         4 ->  101     0.35653238680252E-06
         4 ->  102     -.16892694850778E-06
         4 ->  103     -.43924861045103E-06
         4 ->  104     0.22508618653527E-06
         4 ->  105     -.60646941696907E-06
         4 ->  106     0.99142407452653E-07
         4 ->  107     0.59645681808897E-06

 Alpha  occ. eigenvalues --  -14.26229 -14.26034 -10.16540 -10.15485 -10.15436
 Alpha  occ. eigenvalues --  -10.13324 -10.12607  -0.86580  -0.83232  -0.70217
 Alpha  occ. eigenvalues --   -0.65034  -0.52123  -0.45999  -0.43339  -0.35110
 Alpha  occ. eigenvalues --   -0.32524  -0.31567  -0.29191  -0.27637  -0.26236
 Alpha  occ. eigenvalues --   -0.24685  -0.18206  -0.16355  -0.10779
 Alpha virt. eigenvalues --    0.03562   0.03963   0.06596   0.07052   0.07127
 Alpha virt. eigenvalues --    0.07157   0.07411   0.07472   0.08416   0.08655
 Alpha virt. eigenvalues --    0.14403   0.14811   0.15712   0.16018   0.16223

 Mulliken atomic charges:
              1
     1  N   -0.134420
     2  C    0.662993
     3  C   -0.205910
     4  C   -0.126256
     5  C   -0.018314
     6  C   -1.197279
     7  N   -0.367462
     8  H    0.138216
     9  H    0.135795
    10  H    0.112637
 Sum of Mulliken atomic charges =  -1.00000

 Dipole moment (field-independent basis, Debye):
    X=              2.1735    Y=              2.8978    Z=             -0.1998  Tot=              3.6278
 Quadrupole moment (field-independent basis, Debye-Ang):
   XX=            -63.8772   YY=            -51.7942   ZZ=            -46.9755
   XY=             -6.4798   XZ=             -0.7766   YZ=             -0.1234

 Normal termination of Gaussian 09 at Fri May 26 02:44:04 2023.
