 Gaussian 09, Revision A.02,
 Gaussian 09:  EM64L-G09RevA.02 11-Jun-2009

 ----------------------------------------------------------------------
 #p TD(nstates=1) wB97XD/GEN 6D Iop(6/7=3) Iop(9/40=14) scf(maxcyc=200,
 conver=8) nosym Guess(Read,TCheck) GFInput Pop=(minimal,nto,savento) D
 ensity=(transition=1)
 ----------------------------------------------------------------------

 -------
 Comment
 -------
 Symbolic Z-matrix:
 Charge = -1 Multiplicity = 1

                          Input orientation:
 ---------------------------------------------------------------------
 Center     Atomic      Atomic             Coordinates (Angstroms)
 Number     Number       Type             X           Y           Z
 ---------------------------------------------------------------------
      1          7           0        0.939594   -0.844224   -0.059309
      2          6           0       -0.245141   -0.124275    0.112849
      3          6           0        0.071291    1.269090   -0.004959
      4          6           0        1.498555    1.310507    0.010779
      5          6           0        1.879817   -0.040733   -0.029699
      6          6           0       -1.539364   -0.720896   -0.039298
      7          7           0       -2.693594   -0.976127    0.000934
      8          1           0       -0.716813    2.140184   -0.094838
      9          1           0        1.760160    2.437613    0.395660
     10          1           0        3.055705   -0.391813   -0.081398
 ---------------------------------------------------------------------

 SCF Done:  E(RwB97XD) =  -301.771865405     A.U. after   17 cycles

 Excitation energies and oscillator strengths:

 Excited state symmetry could not be determined.
 Excited State   1:      Singlet-?Sym    3.2378489568 eV  382.92 nm  f=0.0006607076  <S**2>=0.000
         8 ->   25     -.22503659723426E-05
         8 ->   26     -.44859226344920E-05
         8 ->   27     -.19252591010413E-05
         8 ->   28     -.73280232112239E-05
         8 ->   29     0.38300340701382E-04
         8 ->   30     0.63903015912513E-04
         8 ->   31     -.14443061343709E-04
         8 ->   32     0.53801806365292E-05
         8 ->   33     0.28563663999293E-04
         8 ->   34     0.38396370905442E-05
         8 ->   35     -.98410385384196E-05
         8 ->   36     0.18699358538990E-04
         8 ->   37     -.12399438342610E-04
         8 ->   38     0.34323589401430E-04
         8 ->   39     -.90214847321588E-05
         8 ->   40     -.45458127942789E-04
         8 ->   41     0.14453777410507E-04
         8 ->   42     0.13514158541027E-04
         8 ->   43     -.18240843230121E-04
         8 ->   44     -.15794867534412E-04
         8 ->   45     0.98515033219593E-05
         8 ->   46     0.38094203820296E-04
         8 ->   47     -.33471199318412E-04
         8 ->   48     -.32347255592641E-04
         8 ->   49     -.40729659401853E-04
         8 ->   50     0.20814954582134E-05
         8 ->   51     -.15007295121800E-04
         8 ->   52     0.80594832591553E-04
         8 ->   53     0.10394891650162E-04
         8 ->   54     -.12065593077322E-04
         8 ->   55     -.30769450927002E-04
         8 ->   56     0.29171903719724E-04
         8 ->   57     0.13538159593000E-04
         8 ->   58     0.11957164604178E-04
         8 ->   59     -.14887116875370E-04
         8 ->   60     0.93556334952877E-05
         8 ->   61     -.21346412293350E-04
         8 ->   62     0.28007781604362E-04
         8 ->   63     -.43658830642810E-04
         8 ->   64     0.19930500416292E-05
         8 ->   65     -.92371859151517E-05
         8 ->   66     0.21637096994918E-04
         8 ->   67     -.22179474418526E-04
         8 ->   68     0.15579264476459E-04
         8 ->   69     -.11048744995315E-04
         8 ->   70     -.15290141246719E-05
         8 ->   71     -.10196648620415E-05
         8 ->   72     -.22954978680772E-05
         8 ->   73     0.82792435581625E-06
         8 ->   74     -.11663903484175E-05
         8 ->   75     -.18597327304771E-04
         8 ->   76     0.43969616118467E-05
         8 ->   77     -.61292880580054E-05
         8 ->   78     0.74519817562330E-05
         8 ->   79     0.84389619918037E-05
         8 ->   80     -.44528367693595E-05
         8 ->   81     0.22864673377776E-04
         8 ->   82     0.41891920340106E-05
         8 ->   83     0.47471520858693E-05
         8 ->   84     0.99222803766829E-05
         8 ->   85     0.50567023861688E-05
         8 ->   86     -.75097149701607E-06
         8 ->   87     0.70190408187295E-05
         8 ->   88     0.94483028858400E-06
         8 ->   89     0.65397730739248E-05
         8 ->   90     0.10284515067018E-04
         8 ->   91     0.28620940314288E-04
         8 ->   92     -.39059576609086E-04
         8 ->   93     0.40812787640875E-05
         8 ->   94     -.30452225672107E-05
         8 ->   95     0.65963893708625E-05
         8 ->   96     0.43299230459802E-05
         8 ->   97     0.49175149774520E-05
         8 ->   98     -.17260680174677E-05
         8 ->   99     0.11589597300885E-04
         8 ->  100     -.70643033886210E-05
         8 ->  101     0.30376451417698E-05
         8 ->  102     0.71053207873996E-05
         8 ->  103     -.43838415267083E-05
         8 ->  104     0.14814489008829E-04
         8 ->  105     0.45127826525831E-05
         8 ->  106     0.81809864453156E-05
         8 ->  107     -.54015039792972E-06
         8 ->  108     -.32729704198604E-05
         8 ->  109     -.99188907985830E-05
         8 ->  110     0.34395499621056E-05
         8 ->  111     -.94182057348052E-05
         8 ->  112     0.15624813635139E-05
         8 ->  113     0.64385527766678E-06
         8 ->  114     0.12875510512534E-05
         8 ->  115     -.46597847379316E-05
         8 ->  116     -.46154469560744E-05
         8 ->  117     0.43413519014568E-05
         8 ->  118     -.59733318577274E-05
         8 ->  119     -.81606901918083E-05
         8 ->  120     0.15417115434654E-05
         8 ->  121     0.13354713295944E-04
         8 ->  122     -.11104631099931E-05
         8 ->  123     -.24405214033701E-05
         8 ->  124     -.12877362827536E-04
         8 ->  125     0.18471099179079E-05
         8 ->  126     -.13539481329787E-05
         8 ->  127     -.67580171093525E-06
         8 ->  128     -.10473798818514E-04
         8 ->  129     -.49448101974753E-05
         8 ->  130     0.38059217818643E-05
         8 ->  131     -.90888591711238E-05
         8 ->  132     -.11285248529200E-04
         8 ->  133     0.22184226203193E-05
         8 ->  134     -.11577219322570E-04
         8 ->  135     0.17653758009979E-05
         8 ->  136     0.53008397468179E-05
         8 ->  137     -.38672795387284E-05
         8 ->  138     0.33873031421628E-05
         8 ->  139     -.79545561317642E-05
         8 ->  140     0.33279321335908E-05
         8 ->  141     -.63458894523448E-05
         8 ->  142     -.23612971148816E-05
         8 ->  143     -.30709957141302E-05
         8 ->  144     -.34070314158786E-05
         8 ->  145     0.29493103919315E-05
         8 ->  146     -.18265739404571E-05
         8 ->  147     -.17626944058270E-05
         8 ->  148     0.10318361857663E-05
         8 ->  149     0.54130347601681E-05
         8 ->  150     0.20113934778922E-05
         8 ->  151     0.19451479635631E-05
         8 ->  152     -.63729181869178E-05
         8 ->  153     0.12543763765190E-05
         8 ->  154     0.27248192847488E-05
         8 ->  155     -.27214765666029E-05
         8 ->  156     0.36091954259651E-05
         8 ->  157     0.63625910316426E-06
         8 ->  159     0.33895665824834E-05
         8 ->  160     0.29237326385233E-05
         8 ->  161     -.64002312938273E-06
         8 ->  162     0.21116093091592E-05
         8 ->  163     -.26314319235347E-05
         8 ->  164     0.37352344066390E-05
         8 ->  166     0.71165280634057E-06
         8 ->  167     0.11806888061232E-05
         8 ->  168     -.14424532974720E-05
         8 ->  169     0.20548256839157E-05
         8 ->  170     0.35053456268905E-05
         8 ->  171     -.58565208241193E-06
         8 ->  172     0.59862852017805E-06
         8 ->  173     0.24049268655043E-06
         8 ->  174     0.14770200972189E-05
         8 ->  175     0.26477620710525E-05
         8 ->  176     0.13274565694150E-05
         8 ->  177     -.49041506927053E-06
         8 ->  179     -.38775218564236E-07
         8 ->  180     0.92930296792374E-06
         8 ->  181     -.15446973926010E-05
         8 ->  182     0.89556554422449E-06
         8 ->  183     -.16579124834897E-05
         8 ->  184     -.45102202000015E-08
         8 ->  185     0.75936819824753E-07
         8 ->  186     -.13494324972612E-05
         8 ->  188     0.96329128989931E-06
         8 ->  189     0.11185933325302E-05
         8 ->  190     0.55006883384310E-06
         8 ->  191     -.46690077042900E-06
         8 ->  192     0.34070639299853E-06
         8 ->  193     0.59758462221162E-06
         9 ->   25     0.83827341054422E-05
         9 ->   26     0.82629900773159E-05
         9 ->   27     -.24555930405570E-04
         9 ->   28     -.16093155075757E-04
         9 ->   29     -.74006312663924E-04
         9 ->   30     -.39375513334732E-04
         9 ->   31     -.67840618019515E-04
         9 ->   32     0.46274183069442E-04
         9 ->   33     0.37854552351317E-04
         9 ->   34     -.12070212727254E-04
         9 ->   35     0.40566056611129E-05
         9 ->   36     0.10886251284071E-04
         9 ->   37     0.34514821732289E-04
         9 ->   38     -.78285687286436E-04
         9 ->   39     -.37062245965774E-05
         9 ->   40     0.29977016132561E-04
         9 ->   41     0.91732594708240E-05
         9 ->   42     -.26805248629377E-04
         9 ->   43     0.98011117185467E-05
         9 ->   44     0.91435934847556E-05
         9 ->   45     -.40471336227423E-05
         9 ->   46     -.40122610131320E-04
         9 ->   47     0.16917545961986E-04
         9 ->   48     0.72212438285924E-05
         9 ->   49     0.18056511812446E-04
         9 ->   50     0.61630632462360E-05
         9 ->   51     -.31892462495556E-05
         9 ->   52     -.35022501722798E-04
         9 ->   53     -.10772049600459E-04
         9 ->   54     -.72753227961191E-05
         9 ->   55     0.10730260540462E-04
         9 ->   56     -.15054447882161E-04
         9 ->   57     -.27650505012985E-04
         9 ->   58     0.19403428003195E-05
         9 ->   59     0.12591049611322E-04
         9 ->   60     -.12052221739815E-04
         9 ->   61     0.11119041374698E-04
         9 ->   62     0.24201614954074E-05
         9 ->   63     -.20658068627958E-04
         9 ->   64     -.10078689451598E-04
         9 ->   65     0.69007945717236E-05
         9 ->   66     0.85984401619577E-06
         9 ->   67     0.13955155007991E-05
         9 ->   68     0.27874870294506E-05
         9 ->   69     0.67672319933142E-05
         9 ->   70     0.34850705412099E-05
         9 ->   71     0.10466805657034E-04
         9 ->   72     0.83557387759174E-06
         9 ->   73     0.38433299424716E-05
         9 ->   74     0.15377706312521E-05
         9 ->   75     0.51744038519186E-05
         9 ->   76     -.11774147221039E-04
         9 ->   77     0.46824679104218E-05
         9 ->   78     0.12096015656890E-04
         9 ->   79     -.29307848167796E-05
         9 ->   80     -.32963767578626E-05
         9 ->   81     0.30025198256832E-05
         9 ->   82     0.72365783483064E-05
         9 ->   83     0.55782116328853E-05
         9 ->   84     -.43449123387181E-05
         9 ->   85     -.13005476803157E-06
         9 ->   86     -.28585107569840E-05
         9 ->   87     0.18184356945888E-05
         9 ->   88     -.11463746493743E-05
         9 ->   89     0.16812292972857E-05
         9 ->   90     -.54380971521057E-05
         9 ->   91     -.32974877945464E-05
         9 ->   92     0.28940683717040E-05
         9 ->   93     0.67810438809744E-05
         9 ->   94     -.35419487147437E-05
         9 ->   95     0.81214388021256E-07
         9 ->   96     0.19560012000419E-05
         9 ->   97     -.28723677451709E-05
         9 ->   98     0.75118112575079E-05
         9 ->   99     -.14977796475563E-05
         9 ->  100     -.25120767509146E-05
         9 ->  101     0.10303657836892E-05
         9 ->  102     -.38917653994162E-05
         9 ->  103     -.74017339768951E-06
         9 ->  104     -.15810833053870E-06
         9 ->  105     -.23159374340870E-05
         9 ->  106     -.13462122184378E-05
         9 ->  107     0.68308757193101E-05
         9 ->  108     0.33381472240303E-05
         9 ->  109     -.64758286279122E-05
         9 ->  110     -.10853186260625E-04
         9 ->  111     0.21775976359221E-04
         9 ->  112     -.11922681282276E-04
         9 ->  113     -.17034626749230E-05
         9 ->  114     -.93034014398159E-05
         9 ->  115     -.17187246322852E-05
         9 ->  116     0.14164093761149E-05
         9 ->  117     -.21210439574307E-05
         9 ->  118     0.64516494437860E-05
         9 ->  119     0.31885818690160E-06
         9 ->  120     0.52242799541586E-05
         9 ->  121     -.31260738589820E-06
         9 ->  122     -.24273463520672E-05
         9 ->  123     0.45327383723817E-05
         9 ->  124     0.46692102556109E-05
         9 ->  125     0.54608841681746E-05
         9 ->  126     0.46808645656969E-05
         9 ->  127     -.64395175845909E-06
         9 ->  128     0.41839722907082E-05
         9 ->  129     -.11706823257048E-05
         9 ->  130     0.29651792671470E-05
         9 ->  131     -.15627107676943E-05
         9 ->  132     -.16271189332158E-05
         9 ->  133     0.42726583696720E-06
         9 ->  134     0.47634338339326E-06
         9 ->  135     -.11250711608380E-05
         9 ->  136     -.66814553273657E-06
         9 ->  137     -.25783174854590E-05
         9 ->  138     -.64441310905883E-06
         9 ->  139     0.25803699705818E-05
         9 ->  140     -.20688662437569E-05
         9 ->  141     0.12576262375922E-05
         9 ->  142     -.14900212199444E-05
         9 ->  143     0.17538920497264E-05
         9 ->  144     0.26297290531582E-05
         9 ->  145     -.48717507372509E-05
         9 ->  146     -.11501768547318E-05
         9 ->  147     -.12888755848290E-05
         9 ->  148     -.14705544574026E-05
         9 ->  149     -.76573786741311E-07
         9 ->  150     -.10396836584888E-05
         9 ->  151     0.83236071012887E-06
         9 ->  152     0.30225744224372E-05
         9 ->  153     -.13670110999347E-05
         9 ->  154     -.67821140823748E-06
         9 ->  155     0.76714523806269E-06
         9 ->  156     0.28030934621728E-05
         9 ->  157     0.35587977381420E-05
         9 ->  158     0.22690521254563E-06
         9 ->  159     0.78921375629257E-07
         9 ->  160     -.20976536967751E-05
         9 ->  162     0.68797146917996E-06
         9 ->  163     0.87485009119920E-06
         9 ->  164     -.38667968710433E-05
         9 ->  165     -.16691960522517E-05
         9 ->  166     -.27832797841303E-06
         9 ->  167     0.17904814217137E-05
         9 ->  168     -.71526214811605E-06
         9 ->  169     -.84436670383475E-06
         9 ->  170     -.50292895689134E-07
         9 ->  171     -.43333017774482E-06
         9 ->  172     -.15437556975564E-05
         9 ->  173     -.66968245393457E-06
         9 ->  174     -.66512903205791E-06
         9 ->  177     0.26636580092930E-05
         9 ->  181     0.63305431666308E-06
         9 ->  182     -.14602266057221E-05
         9 ->  183     0.46400722488248E-06
         9 ->  184     -.54912997748277E-06
         9 ->  185     0.78748581531296E-06
         9 ->  187     0.10734988062855E-05
         9 ->  188     -.11228084282942E-06
         9 ->  189     -.22923211411682E-05
         9 ->  190     0.71354561162927E-06
         9 ->  191     -.36176254517062E-06
         9 ->  193     0.79028034595788E-06
        10 ->   25     0.10394655530504E-04
        10 ->   26     -.22772620965790E-04
        10 ->   27     -.12773243374003E-04
        10 ->   28     0.17603442100100E-05
        10 ->   29     0.57465706390993E-04
        10 ->   30     0.71660721891087E-04
        10 ->   31     0.42421169455894E-04
        10 ->   32     0.49210889029948E-04
        10 ->   33     0.15629627341161E-04
        10 ->   34     0.47314119501387E-04
        10 ->   35     -.26202867054652E-05
        10 ->   36     0.13265668240763E-04
        10 ->   37     -.11522664679366E-04
        10 ->   38     0.74775110145175E-04
        10 ->   39     -.84856528552968E-05
        10 ->   40     -.81624713292598E-04
        10 ->   41     0.21667285519369E-04
        10 ->   42     0.10645168642843E-04
        10 ->   43     -.37399173554273E-04
        10 ->   44     -.26148180073233E-04
        10 ->   45     0.15234374164331E-04
        10 ->   46     0.93638688131672E-04
        10 ->   47     -.10353279791676E-03
        10 ->   48     -.13672222648436E-03
        10 ->   49     0.48307422662068E-05
        10 ->   50     0.84567788287438E-04
        10 ->   51     0.11066880939875E-04
        10 ->   52     0.10850124861519E-03
        10 ->   53     -.13708331148043E-04
        10 ->   54     -.18531055904338E-04
        10 ->   55     -.46859752004259E-04
        10 ->   56     0.57142948257461E-04
        10 ->   57     0.12252065651322E-04
        10 ->   58     0.23011720740641E-04
        10 ->   59     -.33477442536110E-04
        10 ->   60     0.11770027646004E-04
        10 ->   61     -.30596709200499E-04
        10 ->   62     0.46039989457901E-04
        10 ->   63     -.27613275185964E-04
        10 ->   64     -.19789687018351E-04
        10 ->   65     -.35798065059147E-04
        10 ->   66     0.91039737959324E-05
        10 ->   67     -.19079862350436E-04
        10 ->   68     0.93186662062533E-05
        10 ->   69     0.42735819525899E-05
        10 ->   70     0.57455956688434E-05
        10 ->   71     -.22571405466686E-04
        10 ->   72     -.11658169578252E-04
        10 ->   73     -.88605094098549E-05
        10 ->   74     0.11033725963137E-05
        10 ->   75     -.14291827721291E-04
        10 ->   76     -.38105878847204E-05
        10 ->   77     -.12335854230851E-04
        10 ->   78     0.99313181208866E-05
        10 ->   79     0.30706115946696E-04
        10 ->   80     -.58855740410143E-05
        10 ->   81     0.36167225221506E-04
        10 ->   82     -.11134398596179E-04
        10 ->   83     0.16127125390902E-04
        10 ->   84     -.14345015385603E-05
        10 ->   85     0.31855298185136E-07
        10 ->   86     0.25607719798301E-04
        10 ->   87     0.18271464740119E-05
        10 ->   88     0.16370677967000E-04
        10 ->   89     -.47922721503243E-04
        10 ->   90     0.22765434799237E-04
        10 ->   91     0.46929497289253E-04
        10 ->   92     -.17894674897822E-04
        10 ->   93     0.30387839063448E-04
        10 ->   94     0.25282981772714E-04
        10 ->   95     0.78405416339175E-05
        10 ->   96     0.95934441961888E-05
        10 ->   97     -.81496948551983E-05
        10 ->   98     -.16138915140806E-04
        10 ->   99     0.20746436053154E-04
        10 ->  100     -.23452890575922E-04
        10 ->  101     0.21735757256637E-04
        10 ->  102     0.94786281608026E-05
        10 ->  103     -.11758124350308E-04
        10 ->  104     0.31626658359507E-04
        10 ->  105     0.78080518608631E-05
        10 ->  106     0.31467510043392E-05
        10 ->  107     -.73901273522505E-06
        10 ->  108     -.53087045750957E-05
        10 ->  109     -.55851401123376E-05
        10 ->  110     0.90686070720408E-05
        10 ->  111     -.33006792658309E-05
        10 ->  112     0.11615326854463E-04
        10 ->  113     0.10546542115116E-04
        10 ->  114     0.24404873791361E-05
        10 ->  115     0.49940452181269E-05
        10 ->  116     -.33095127767579E-05
        10 ->  117     -.32365253348742E-05
        10 ->  118     0.45716132253894E-06
        10 ->  119     0.26146136634940E-05
        10 ->  120     -.36574877829659E-05
        10 ->  121     0.14273448065619E-06
        10 ->  122     0.67232940234062E-05
        10 ->  123     -.50488474881432E-05
        10 ->  124     0.14988427106478E-04
        10 ->  125     0.19680643879776E-05
        10 ->  126     0.14235583714791E-05
        10 ->  127     -.48212549427698E-06
        10 ->  128     0.52498867680093E-05
        10 ->  129     -.29364909607303E-05
        10 ->  130     -.35941670707264E-05
        10 ->  131     -.33794074561870E-05
        10 ->  132     -.45107011503308E-06
        10 ->  133     -.21883710355448E-05
        10 ->  134     0.16035734810883E-05
        10 ->  135     -.24135144839560E-05
        10 ->  136     -.43688415164122E-05
        10 ->  137     0.66644748587759E-05
        10 ->  138     0.11985902646685E-04
        10 ->  139     0.17063862123851E-05
        10 ->  140     -.11449381365143E-05
        10 ->  141     0.15806742342515E-05
        10 ->  142     0.43374498603940E-05
        10 ->  143     0.20151374708479E-04
        10 ->  144     0.10690232194092E-04
        10 ->  145     0.22805465868442E-06
        10 ->  146     0.21126568133684E-05
        10 ->  147     0.44025052307298E-05
        10 ->  148     -.62835031987653E-05
        10 ->  149     -.47865010992245E-06
        10 ->  150     0.29929735535851E-05
        10 ->  151     -.26527007700600E-05
        10 ->  152     0.38513220649465E-05
        10 ->  153     -.42792473498816E-05
        10 ->  154     -.51210966208808E-05
        10 ->  155     0.30964386256125E-05
        10 ->  156     -.38808793076195E-05
        10 ->  157     -.50443695465694E-06
        10 ->  158     0.71492445660058E-06
        10 ->  159     0.36427836611017E-05
        10 ->  160     0.45879830106498E-05
        10 ->  161     -.38660912809235E-05
        10 ->  162     -.25767664000721E-05
        10 ->  163     0.30754180185254E-06
        10 ->  164     0.30653227735150E-06
        10 ->  165     -.12270592520512E-05
        10 ->  166     0.63011610634282E-06
        10 ->  167     -.40585380440415E-05
        10 ->  168     0.23019090707996E-05
        10 ->  169     0.17445954296854E-05
        10 ->  170     -.10456809561409E-05
        10 ->  171     0.47529157532950E-06
        10 ->  172     0.23338865015175E-05
        10 ->  173     -.32467878476035E-05
        10 ->  174     0.17854260565501E-05
        10 ->  175     0.40503261260660E-05
        10 ->  176     -.12080843563080E-05
        10 ->  177     -.45829540656739E-06
        10 ->  178     -.79419549276455E-06
        10 ->  179     0.45388305143000E-05
        10 ->  180     0.22952424684496E-05
        10 ->  181     0.76484241397315E-06
        10 ->  182     0.48977604459096E-06
        10 ->  184     -.43279237804274E-06
        10 ->  185     -.29069306237412E-06
        10 ->  186     -.28576929570490E-05
        10 ->  187     -.17831528614909E-05
        10 ->  188     -.17007014121256E-07
        10 ->  189     0.26725339740762E-06
        10 ->  190     0.13490169227750E-05
        10 ->  191     0.56800911417370E-06
        10 ->  192     -.21381321759283E-07
        11 ->   25     0.61766164142967E-05
        11 ->   26     -.39616228305625E-06
        11 ->   27     -.55587456498762E-05
        11 ->   28     -.47757986495794E-04
        11 ->   29     -.19002047904836E-03
        11 ->   30     -.65841413471721E-04
        11 ->   31     -.79032780047922E-03
        11 ->   32     0.11613163942821E-02
        11 ->   33     -.20005629018142E-04
        11 ->   34     0.16718765770487E-06
        11 ->   35     -.71403206438323E-05
        11 ->   36     -.30657650025699E-04
        11 ->   37     0.38168907196879E-03
        11 ->   38     -.32373371849222E-03
        11 ->   39     0.25814285604863E-03
        11 ->   40     -.66336141343348E-03
        11 ->   41     -.45609215618393E-04
        11 ->   42     0.32453142930018E-05
        11 ->   43     -.14911754925272E-03
        11 ->   44     -.14781168840074E-03
        11 ->   45     0.55990439902429E-05
        11 ->   46     0.12456895480806E-03
        11 ->   47     -.28191043122737E-03
        11 ->   48     -.27501122357295E-03
        11 ->   49     -.28298219912063E-03
        11 ->   50     -.20685453859854E-04
        11 ->   51     -.26897310548028E-04
        11 ->   52     0.90716180856470E-04
        11 ->   53     0.29715385662765E-04
        11 ->   54     -.18327173273786E-03
        11 ->   55     -.14701275427622E-03
        11 ->   56     0.16494592144684E-03
        11 ->   57     -.17470036002598E-03
        11 ->   58     0.37677360645043E-04
        11 ->   59     -.18459312792167E-04
        11 ->   60     0.29133545681181E-04
        11 ->   61     0.71979904329051E-04
        11 ->   62     -.53554063898390E-04
        11 ->   63     0.10606696366313E-03
        11 ->   64     -.24404133092330E-05
        11 ->   65     0.16345418122120E-04
        11 ->   66     -.27259256859631E-04
        11 ->   67     -.16317255303688E-04
        11 ->   68     -.45329435393155E-05
        11 ->   69     0.36236591108323E-04
        11 ->   70     0.18283768461612E-04
        11 ->   71     -.85023990790093E-05
        11 ->   72     0.10907638888782E-04
        11 ->   73     -.11022328485050E-04
        11 ->   74     0.64179892527796E-05
        11 ->   75     0.30035574793723E-04
        11 ->   76     -.38988490245968E-04
        11 ->   77     0.11166797068356E-04
        11 ->   78     0.87264014308074E-05
        11 ->   79     0.19652241432660E-04
        11 ->   80     -.20507328613582E-04
        11 ->   81     0.37179658042592E-05
        11 ->   82     -.37004513868841E-04
        11 ->   83     -.68605010593569E-05
        11 ->   84     -.26377182109813E-07
        11 ->   85     -.41580327328792E-04
        11 ->   86     0.27882481730326E-04
        11 ->   87     -.23917014688779E-04
        11 ->   88     -.74598487896432E-06
        11 ->   89     -.78776250447298E-04
        11 ->   90     0.63899229673552E-04
        11 ->   91     0.68219121583559E-04
        11 ->   92     -.47562575837714E-04
        11 ->   93     -.19313333714281E-04
        11 ->   94     0.13066987053739E-04
        11 ->   95     -.14619957864206E-04
        11 ->   96     0.85915578031404E-05
        11 ->   97     0.13440356421180E-04
        11 ->   98     -.31746163739267E-04
        11 ->   99     0.15749488098797E-04
        11 ->  100     0.71413555514141E-05
        11 ->  101     0.11123255719081E-04
        11 ->  102     0.10668772195485E-04
        11 ->  103     -.13410680294572E-04
        11 ->  104     0.13809462247472E-04
        11 ->  105     0.11171599906779E-04
        11 ->  106     -.47152470847872E-07
        11 ->  107     -.56855710196126E-05
        11 ->  108     -.21465113616688E-04
        11 ->  109     -.73729458579041E-05
        11 ->  110     0.10043141886264E-04
        11 ->  111     0.21858617677284E-04
        11 ->  112     -.12187952218075E-05
        11 ->  113     0.62604641053554E-05
        11 ->  114     -.85876921937349E-05
        11 ->  115     -.34399487465128E-05
        11 ->  116     0.32310090066537E-05
        11 ->  117     0.67971495851391E-05
        11 ->  118     0.60303131981527E-05
        11 ->  119     0.29451989529958E-05
        11 ->  120     -.48941484890525E-05
        11 ->  121     -.57712964485677E-05
        11 ->  122     0.15081348843283E-05
        11 ->  123     0.68816583213029E-05
        11 ->  124     -.27182798362584E-05
        11 ->  125     0.33836995341085E-05
        11 ->  126     0.27044527309078E-05
        11 ->  127     -.11617714951835E-05

 Alpha  occ. eigenvalues --    0.00000   0.00000   0.00000   0.00000   0.00000
 Alpha  occ. eigenvalues --    0.00000   0.00000   0.00000   0.00000   0.00000
 Alpha  occ. eigenvalues --    0.00000   0.00000   0.00000   0.00000   0.00000
 Alpha  occ. eigenvalues --    0.00000   0.00000   0.00000   0.00000   0.00001
 Alpha  occ. eigenvalues --    0.00001   0.00004   0.00132   0.99861
 Alpha virt. eigenvalues --    0.99861   0.00132   0.00004   0.00001   0.00001
 Alpha virt. eigenvalues --    0.00000   0.00000   0.00000   0.00000   0.00000
 Alpha virt. eigenvalues --    0.00000   0.00000   0.00000   0.00000   0.00000

 Mulliken atomic charges:
              1
     1  N    6.960102
     2  C    6.007722
     3  C    5.987435
     4  C    6.040771
     5  C    5.976701
     6  C    5.983116
     7  N    7.035318
     8  H    0.998409
     9  H    1.008236
    10  H    1.002190
 Sum of Mulliken atomic charges =  47.00000

 Dipole moment (field-independent basis, Debye):
    X=             -0.0223    Y=             -0.1179    Z=              0.3053  Tot=              0.3281
 Quadrupole moment (field-independent basis, Debye-Ang):
   XX=              0.0323   YY=             -0.2909   ZZ=             -0.2204
   XY=             -0.3407   XZ=              1.0597   YZ=              0.4874

 1\1\GINC-WUX11\SP\RTD-wB97XD-FC\Gen\C5H3N2(1-)\ISSLERK\25-May-2023\0\\
 #p TD(nstates=1) wB97XD/GEN 6D Iop(6/7=3) Iop(9/40=14) scf(maxcyc=200,
 conver=8) nosym Guess(Read,TCheck) GFInput Pop=(minimal,nto,savento) D
 ensity=(transition=1)\\Comment\\-1,1\N,0,0.939594089,-0.844223896,-0.0
 59309281\C,0,-0.245140838,-0.124274708,0.112848964\C,0,0.071290795,1.2
 69089603,-0.004959183\C,0,1.49855523,1.310506673,0.010778654\C,0,1.879
 816934,-0.040733414,-0.02969906\C,0,-1.539363774,-0.720895598,-0.03929
 7746\N,0,-2.693594257,-0.976127237,0.000934058\H,0,-0.716813032,2.1401

 Normal termination of Gaussian 09 at Thu May 25 09:20:25 2023.
