 Gaussian 09, Revision A.02,
 Gaussian 09:  EM64L-G09RevA.02 11-Jun-2009

 ----------------------------------------------------------------------
 #p wB97XD/GEN 6D Iop(6/7=3) Iop(9/40=14) scf(maxcyc=200,conver=8) nosy
 m Guess(Read,TCheck) GFInput
 ----------------------------------------------------------------------

 -------
 Comment
 -------
 Symbolic Z-matrix:
 Charge =  0 Multiplicity = 2

                          Input orientation:
 ---------------------------------------------------------------------
 Center     Atomic      Atomic             Coordinates (Angstroms)
 Number     Number       Type             X           Y           Z
 ---------------------------------------------------------------------
      1          7           0        0.951920   -0.928238   -0.002453
      2          6           0       -0.241784   -0.113870    0.057253
      3          6           0        0.059605    1.261091   -0.001439
      4          6           0        1.358420    1.359373    0.063605
      5          6           0        1.943684   -0.011023   -0.055110
      6          6           0       -1.571898   -0.618290   -0.019320
      7          7           0       -2.670372   -1.023247   -0.016861
      8          1           0       -0.548133    2.243069    0.010142
      9          1           0        2.419596    1.962365    0.021870
     10          1           0        3.129240   -0.384669   -0.299588
 ---------------------------------------------------------------------

 SCF Done:  E(UwB97XD) =  -301.647690310     A.U. after   17 cycles

 Alpha  occ. eigenvalues --  -14.47510 -14.46767 -10.41204 -10.38708 -10.35818
 Alpha  occ. eigenvalues --  -10.35177 -10.33990  -1.09228  -1.03644  -0.91811
 Alpha  occ. eigenvalues --   -0.88246  -0.74262  -0.67671  -0.64550  -0.56193
 Alpha  occ. eigenvalues --   -0.55124  -0.52530  -0.48926  -0.48247  -0.47030
 Alpha  occ. eigenvalues --   -0.44561  -0.38755  -0.37314  -0.35056
 Alpha virt. eigenvalues --    0.00139   0.00434   0.00954   0.01263   0.01294
 Alpha virt. eigenvalues --    0.01715   0.01773   0.01927   0.02018   0.02071
 Alpha virt. eigenvalues --    0.02720   0.04301   0.05446   0.05698   0.06089

  Beta  occ. eigenvalues --  -14.47058 -14.47019 -10.40501 -10.38301 -10.36026
  Beta  occ. eigenvalues --  -10.34901 -10.34104  -1.08502  -1.02796  -0.91636
  Beta  occ. eigenvalues --   -0.86174  -0.73397  -0.66987  -0.64199  -0.55931
  Beta  occ. eigenvalues --   -0.52519  -0.51603  -0.48378  -0.47554  -0.44347
  Beta  occ. eigenvalues --   -0.44189  -0.38757  -0.37336
  Beta virt. eigenvalues --   -0.11215   0.00162   0.00435   0.01008   0.01289
  Beta virt. eigenvalues --    0.01345   0.01729   0.01888   0.01935   0.02084
  Beta virt. eigenvalues --    0.02738   0.04019   0.04449   0.05454   0.05789

 Mulliken atomic charges:
              1
     1  N   -0.023484
     2  C    0.739344
     3  C   -0.146538
     4  C   -0.039494
     5  C    0.159985
     6  C   -1.330910
     7  N   -0.133539
     8  H    0.250486
     9  H    0.266309
    10  H    0.257839
 Sum of Mulliken atomic charges =  -0.00000

 Dipole moment (field-independent basis, Debye):
    X=              3.6936    Y=              3.6080    Z=             -0.1303  Tot=              5.1650
 Quadrupole moment (field-independent basis, Debye-Ang):
   XX=            -40.6539   YY=            -41.6370   ZZ=            -41.2744
   XY=             -1.3048   XZ=             -0.8426   YZ=              0.0052

 Normal termination of Gaussian 09 at Fri May 26 02:45:36 2023.
