 Gaussian 09, Revision A.02,
 Gaussian 09:  EM64L-G09RevA.02 11-Jun-2009

 ----------------------------------------------------------------------
 #p wB97XD/GEN 6D Iop(6/7=3) Iop(9/40=14) scf(maxcyc=200,conver=8) nosy
 m Guess(Read,TCheck) GFInput
 ----------------------------------------------------------------------

 -------
 Comment
 -------
 Symbolic Z-matrix:
 Charge =  0 Multiplicity = 2

                          Input orientation:
 ---------------------------------------------------------------------
 Center     Atomic      Atomic             Coordinates (Angstroms)
 Number     Number       Type             X           Y           Z
 ---------------------------------------------------------------------
      1          7           0        0.951626   -0.929187   -0.001118
      2          6           0       -0.241188   -0.114338    0.054647
      3          6           0        0.059829    1.262077   -0.000726
      4          6           0        1.357320    1.360496    0.064445
      5          6           0        1.942177   -0.012306   -0.055372
      6          6           0       -1.571064   -0.616094   -0.018299
      7          7           0       -2.670272   -1.024247   -0.017329
      8          1           0       -0.551251    2.236738    0.013852
      9          1           0        2.426613    1.966127    0.012733
     10          1           0        3.139415   -0.385453   -0.302741
 ---------------------------------------------------------------------

 SCF Done:  E(UwB97XD) =  -301.645399705     A.U. after   17 cycles

 Alpha  occ. eigenvalues --  -14.47566 -14.46796 -10.41196 -10.38811 -10.35859
 Alpha  occ. eigenvalues --  -10.35241 -10.33964  -1.09262  -1.03594  -0.91870
 Alpha  occ. eigenvalues --   -0.88226  -0.74186  -0.67630  -0.64574  -0.56190
 Alpha  occ. eigenvalues --   -0.55132  -0.52388  -0.48948  -0.48222  -0.47016
 Alpha  occ. eigenvalues --   -0.44520  -0.38789  -0.37359  -0.35026
 Alpha virt. eigenvalues --    0.00139   0.00434   0.00951   0.01263   0.01294
 Alpha virt. eigenvalues --    0.01714   0.01762   0.01926   0.02005   0.02070
 Alpha virt. eigenvalues --    0.02718   0.04262   0.05439   0.05658   0.06089

  Beta  occ. eigenvalues --  -14.47107 -14.47049 -10.40493 -10.38403 -10.36069
  Beta  occ. eigenvalues --  -10.34967 -10.34077  -1.08540  -1.02736  -0.91696
  Beta  occ. eigenvalues --   -0.86159  -0.73318  -0.66953  -0.64218  -0.55933
  Beta  occ. eigenvalues --   -0.52433  -0.51562  -0.48382  -0.47540  -0.44313
  Beta  occ. eigenvalues --   -0.44148  -0.38787  -0.37384
  Beta virt. eigenvalues --   -0.11189   0.00162   0.00435   0.01007   0.01289
  Beta virt. eigenvalues --    0.01346   0.01729   0.01888   0.01935   0.02084
  Beta virt. eigenvalues --    0.02738   0.03990   0.04421   0.05450   0.05763

 Mulliken atomic charges:
              1
     1  N   -0.021948
     2  C    0.756672
     3  C   -0.140470
     4  C   -0.042030
     5  C    0.168004
     6  C   -1.358451
     7  N   -0.132918
     8  H    0.250486
     9  H    0.264434
    10  H    0.256221
 Sum of Mulliken atomic charges =  -0.00000

 Dipole moment (field-independent basis, Debye):
    X=              3.6838    Y=              3.6018    Z=             -0.1386  Tot=              5.1539
 Quadrupole moment (field-independent basis, Debye-Ang):
   XX=            -40.6479   YY=            -41.6699   ZZ=            -41.2906
   XY=             -1.3253   XZ=             -0.8745   YZ=              0.0014

 Normal termination of Gaussian 09 at Fri May 26 03:05:05 2023.
